  128

    1
0.0000000000e+00 0.0000000000e+00 0.0000000000e+00
0.0000000000e+00 0.0000000000e+00 0.0000000000e+00
     1      1      1
 1  1  1     0.0000000000e+00
 1  1  2     1.5833241937e+02
 1  1  3     0.0000000000e+00
 1  2  1     1.5833241937e+02
 1  2  2     0.0000000000e+00
 1  2  3     0.0000000000e+00
 1  3  1     0.0000000000e+00
 1  3  2     0.0000000000e+00
 1  3  3     0.0000000000e+00
 2  1  1     1.5833241937e+02
 2  1  2     0.0000000000e+00
 2  1  3     0.0000000000e+00
 2  2  1     0.0000000000e+00
 2  2  2    -1.5833241937e+02
 2  2  3     0.0000000000e+00
 2  3  1     0.0000000000e+00
 2  3  2     0.0000000000e+00
 2  3  3     0.0000000000e+00
 3  1  1     0.0000000000e+00
 3  1  2     0.0000000000e+00
 3  1  3     0.0000000000e+00
 3  2  1     0.0000000000e+00
 3  2  2     0.0000000000e+00
 3  2  3     0.0000000000e+00
 3  3  1     0.0000000000e+00
 3  3  2     0.0000000000e+00
 3  3  3     0.0000000000e+00

    2
0.0000000000e+00 0.0000000000e+00 0.0000000000e+00
0.0000000000e+00 0.0000000000e+00 0.0000000000e+00
     1      1      2
 1  1  1     1.1201600592e+02
 1  1  2    -7.0733398547e+01
 1  1  3     0.0000000000e+00
 1  2  1    -7.0608160367e+01
 1  2  2     3.7266362342e+01
 1  2  3     0.0000000000e+00
 1  3  1     0.0000000000e+00
 1  3  2     0.0000000000e+00
 1  3  3    -1.2874694307e+01
 2  1  1    -7.0608160367e+01
 2  1  2     3.7266362342e+01
 2  1  3     0.0000000000e+00
 2  2  1     3.7483281232e+01
 2  2  2    -1.5580055132e+01
 2  2  3     0.0000000000e+00
 2  3  1     0.0000000000e+00
 2  3  2     0.0000000000e+00
 2  3  3     7.4332082236e+00
 3  1  1     0.0000000000e+00
 3  1  2     0.0000000000e+00
 3  1  3    -1.2874694307e+01
 3  2  1     0.0000000000e+00
 3  2  2     0.0000000000e+00
 3  2  3     7.4332082236e+00
 3  3  1    -1.1350951955e+01
 3  3  2     6.5534751668e+00
 3  3  3     0.0000000000e+00

    3
0.0000000000e+00 0.0000000000e+00 0.0000000000e+00
2.4688163987e+00 0.0000000000e+00 0.0000000000e+00
     1      1      1
 1  1  1     0.0000000000e+00
 1  1  2    -1.9280308035e+00
 1  1  3     0.0000000000e+00
 1  2  1    -7.2279239359e+00
 1  2  2     0.0000000000e+00
 1  2  3     0.0000000000e+00
 1  3  1     0.0000000000e+00
 1  3  2     0.0000000000e+00
 1  3  3     0.0000000000e+00
 2  1  1    -7.2279239359e+00
 2  1  2     0.0000000000e+00
 2  1  3     0.0000000000e+00
 2  2  1     0.0000000000e+00
 2  2  2     1.5324859026e+00
 2  2  3     0.0000000000e+00
 2  3  1     0.0000000000e+00
 2  3  2     0.0000000000e+00
 2  3  3    -2.1191748215e+00
 3  1  1     0.0000000000e+00
 3  1  2     0.0000000000e+00
 3  1  3     0.0000000000e+00
 3  2  1     0.0000000000e+00
 3  2  2     0.0000000000e+00
 3  2  3    -2.1191748215e+00
 3  3  1     0.0000000000e+00
 3  3  2    -7.4522087141e-01
 3  3  3     0.0000000000e+00

    4
0.0000000000e+00 0.0000000000e+00 0.0000000000e+00
2.4688163987e+00 0.0000000000e+00 0.0000000000e+00
     1      1      2
 1  1  1    -1.1201600592e+02
 1  1  2    -7.0733398547e+01
 1  1  3     0.0000000000e+00
 1  2  1    -7.0608160367e+01
 1  2  2    -3.7266362342e+01
 1  2  3     0.0000000000e+00
 1  3  1     0.0000000000e+00
 1  3  2     0.0000000000e+00
 1  3  3     1.2874694307e+01
 2  1  1    -7.0608160367e+01
 2  1  2    -3.7266362342e+01
 2  1  3     0.0000000000e+00
 2  2  1    -3.7483281232e+01
 2  2  2    -1.5580055132e+01
 2  2  3     0.0000000000e+00
 2  3  1     0.0000000000e+00
 2  3  2     0.0000000000e+00
 2  3  3     7.4332082236e+00
 3  1  1     0.0000000000e+00
 3  1  2     0.0000000000e+00
 3  1  3     1.2874694307e+01
 3  2  1     0.0000000000e+00
 3  2  2     0.0000000000e+00
 3  2  3     7.4332082236e+00
 3  3  1     1.1350951955e+01
 3  3  2     6.5534751668e+00
 3  3  3     0.0000000000e+00

    5
0.0000000000e+00 0.0000000000e+00 0.0000000000e+00
-1.2344081994e+00 2.1380577186e+00 0.0000000000e+00
     1      1      1
 1  1  1     2.5518349944e+00
 1  1  2    -5.7546213149e+00
 1  1  3     0.0000000000e+00
 1  2  1    -3.1046747487e+00
 1  2  2     2.3805590281e+00
 1  2  3     0.0000000000e+00
 1  3  1     0.0000000000e+00
 1  3  2     0.0000000000e+00
 1  3  3     1.8352592305e+00
 2  1  1    -3.1046747487e+00
 2  1  2     2.3805590281e+00
 2  1  3     0.0000000000e+00
 2  2  1    -2.2092830618e+00
 2  2  2     5.9523937654e+00
 2  2  3     0.0000000000e+00
 2  3  1     0.0000000000e+00
 2  3  2     0.0000000000e+00
 2  3  3     1.0595874108e+00
 3  1  1     0.0000000000e+00
 3  1  2     0.0000000000e+00
 3  1  3     1.8352592305e+00
 3  2  1     0.0000000000e+00
 3  2  2     0.0000000000e+00
 3  2  3     1.0595874108e+00
 3  3  1     6.4538020607e-01
 3  3  2     3.7261043571e-01
 3  3  3     0.0000000000e+00

    6
0.0000000000e+00 0.0000000000e+00 0.0000000000e+00
1.2344081994e+00 -2.1380577186e+00 0.0000000000e+00
     1      1      2
 1  1  1     0.0000000000e+00
 1  1  2    -5.8104510183e+00
 1  1  3     0.0000000000e+00
 1  2  1    -6.0609273776e+00
 1  2  2     0.0000000000e+00
 1  2  3     0.0000000000e+00
 1  3  1     0.0000000000e+00
 1  3  2     0.0000000000e+00
 1  3  3     0.0000000000e+00
 2  1  1    -6.0609273776e+00
 2  1  2     0.0000000000e+00
 2  1  3     0.0000000000e+00
 2  2  1     0.0000000000e+00
 2  2  2     1.7843735838e+02
 2  2  3     0.0000000000e+00
 2  3  1     0.0000000000e+00
 2  3  2     0.0000000000e+00
 2  3  3    -1.4866416447e+01
 3  1  1     0.0000000000e+00
 3  1  2     0.0000000000e+00
 3  1  3     0.0000000000e+00
 3  2  1     0.0000000000e+00
 3  2  2     0.0000000000e+00
 3  2  3    -1.4866416447e+01
 3  3  1     0.0000000000e+00
 3  3  2    -1.3106950334e+01
 3  3  3     0.0000000000e+00

    7
0.0000000000e+00 0.0000000000e+00 0.0000000000e+00
1.2344081994e+00 2.1380577186e+00 0.0000000000e+00
     1      1      1
 1  1  1    -2.5518349944e+00
 1  1  2    -5.7546213149e+00
 1  1  3     0.0000000000e+00
 1  2  1    -3.1046747487e+00
 1  2  2    -2.3805590281e+00
 1  2  3     0.0000000000e+00
 1  3  1     0.0000000000e+00
 1  3  2     0.0000000000e+00
 1  3  3    -1.8352592305e+00
 2  1  1    -3.1046747487e+00
 2  1  2    -2.3805590281e+00
 2  1  3     0.0000000000e+00
 2  2  1     2.2092830618e+00
 2  2  2     5.9523937654e+00
 2  2  3     0.0000000000e+00
 2  3  1     0.0000000000e+00
 2  3  2     0.0000000000e+00
 2  3  3     1.0595874108e+00
 3  1  1     0.0000000000e+00
 3  1  2     0.0000000000e+00
 3  1  3    -1.8352592305e+00
 3  2  1     0.0000000000e+00
 3  2  2     0.0000000000e+00
 3  2  3     1.0595874108e+00
 3  3  1    -6.4538020607e-01
 3  3  2     3.7261043571e-01
 3  3  3     0.0000000000e+00

    8
0.0000000000e+00 0.0000000000e+00 0.0000000000e+00
-1.2344081994e+00 -2.1380577186e+00 0.0000000000e+00
     1      1      2
 1  1  1     0.0000000000e+00
 1  1  2     2.3821021544e+00
 1  1  3     0.0000000000e+00
 1  2  1     2.3821021544e+00
 1  2  2     0.0000000000e+00
 1  2  3     0.0000000000e+00
 1  3  1     0.0000000000e+00
 1  3  2     0.0000000000e+00
 1  3  3     0.0000000000e+00
 2  1  1     2.3821021544e+00
 2  1  2     0.0000000000e+00
 2  1  3     0.0000000000e+00
 2  2  1     0.0000000000e+00
 2  2  2    -2.3821021544e+00
 2  2  3     0.0000000000e+00
 2  3  1     0.0000000000e+00
 2  3  2     0.0000000000e+00
 2  3  3     0.0000000000e+00
 3  1  1     0.0000000000e+00
 3  1  2     0.0000000000e+00
 3  1  3     0.0000000000e+00
 3  2  1     0.0000000000e+00
 3  2  2     0.0000000000e+00
 3  2  3     0.0000000000e+00
 3  3  1     0.0000000000e+00
 3  3  2     0.0000000000e+00
 3  3  3     0.0000000000e+00

    9
0.0000000000e+00 0.0000000000e+00 0.0000000000e+00
0.0000000000e+00 0.0000000000e+00 0.0000000000e+00
     1      2      1
 1  1  1     1.1201600592e+02
 1  1  2    -7.0608160367e+01
 1  1  3     0.0000000000e+00
 1  2  1    -7.0733398547e+01
 1  2  2     3.7266362342e+01
 1  2  3     0.0000000000e+00
 1  3  1     0.0000000000e+00
 1  3  2     0.0000000000e+00
 1  3  3    -1.2874694307e+01
 2  1  1    -7.0608160367e+01
 2  1  2     3.7483281232e+01
 2  1  3     0.0000000000e+00
 2  2  1     3.7266362342e+01
 2  2  2    -1.5580055132e+01
 2  2  3     0.0000000000e+00
 2  3  1     0.0000000000e+00
 2  3  2     0.0000000000e+00
 2  3  3     7.4332082236e+00
 3  1  1     0.0000000000e+00
 3  1  2     0.0000000000e+00
 3  1  3    -1.1350951955e+01
 3  2  1     0.0000000000e+00
 3  2  2     0.0000000000e+00
 3  2  3     6.5534751668e+00
 3  3  1    -1.2874694307e+01
 3  3  2     7.4332082236e+00
 3  3  3     0.0000000000e+00

   10
0.0000000000e+00 0.0000000000e+00 0.0000000000e+00
0.0000000000e+00 0.0000000000e+00 0.0000000000e+00
     1      2      2
 1  1  1    -1.1201600592e+02
 1  1  2     7.0608160367e+01
 1  1  3     0.0000000000e+00
 1  2  1     7.0608160367e+01
 1  2  2    -3.7483281232e+01
 1  2  3     0.0000000000e+00
 1  3  1     0.0000000000e+00
 1  3  2     0.0000000000e+00
 1  3  3     1.1350951955e+01
 2  1  1     7.0733398547e+01
 2  1  2    -3.7266362342e+01
 2  1  3     0.0000000000e+00
 2  2  1    -3.7266362342e+01
 2  2  2     1.5580055132e+01
 2  2  3     0.0000000000e+00
 2  3  1     0.0000000000e+00
 2  3  2     0.0000000000e+00
 2  3  3    -6.5534751668e+00
 3  1  1     0.0000000000e+00
 3  1  2     0.0000000000e+00
 3  1  3     1.2874694307e+01
 3  2  1     0.0000000000e+00
 3  2  2     0.0000000000e+00
 3  2  3    -7.4332082236e+00
 3  3  1     1.2874694307e+01
 3  3  2    -7.4332082236e+00
 3  3  3     0.0000000000e+00

   11
0.0000000000e+00 0.0000000000e+00 0.0000000000e+00
-2.4688163987e+00 0.0000000000e+00 0.0000000000e+00
     1      2      1
 1  1  1     0.0000000000e+00
 1  1  2     5.0312455002e+00
 1  1  3     0.0000000000e+00
 1  2  1     5.5227670536e+00
 1  2  2     3.7562042828e+00
 1  2  3     0.0000000000e+00
 1  3  1     0.0000000000e+00
 1  3  2     0.0000000000e+00
 1  3  3     1.4807469699e+00
 2  1  1     5.0312455002e+00
 2  1  2     0.0000000000e+00
 2  1  3     0.0000000000e+00
 2  2  1    -3.7562042828e+00
 2  2  2    -1.1081358403e+00
 2  2  3     0.0000000000e+00
 2  3  1     0.0000000000e+00
 2  3  2     0.0000000000e+00
 2  3  3     1.5288763324e+00
 3  1  1     0.0000000000e+00
 3  1  2     0.0000000000e+00
 3  1  3     0.0000000000e+00
 3  2  1     0.0000000000e+00
 3  2  2     0.0000000000e+00
 3  2  3     1.2451246184e+00
 3  3  1    -1.4807469699e+00
 3  3  2     1.5288763324e+00
 3  3  3     0.0000000000e+00

   12
0.0000000000e+00 0.0000000000e+00 0.0000000000e+00
2.4688163987e+00 0.0000000000e+00 0.0000000000e+00
     1      2      2
 1  1  1     0.0000000000e+00
 1  1  2    -5.0312455002e+00
 1  1  3     0.0000000000e+00
 1  2  1    -5.0312455002e+00
 1  2  2     0.0000000000e+00
 1  2  3     0.0000000000e+00
 1  3  1     0.0000000000e+00
 1  3  2     0.0000000000e+00
 1  3  3     0.0000000000e+00
 2  1  1    -5.5227670536e+00
 2  1  2    -3.7562042828e+00
 2  1  3     0.0000000000e+00
 2  2  1     3.7562042828e+00
 2  2  2     1.1081358403e+00
 2  2  3     0.0000000000e+00
 2  3  1     0.0000000000e+00
 2  3  2     0.0000000000e+00
 2  3  3    -1.2451246184e+00
 3  1  1     0.0000000000e+00
 3  1  2     0.0000000000e+00
 3  1  3    -1.4807469699e+00
 3  2  1     0.0000000000e+00
 3  2  2     0.0000000000e+00
 3  2  3    -1.5288763324e+00
 3  3  1     1.4807469699e+00
 3  3  2    -1.5288763324e+00
 3  3  3     0.0000000000e+00

   13
0.0000000000e+00 0.0000000000e+00 0.0000000000e+00
-1.2344081994e+00 2.1380577186e+00 0.0000000000e+00
     1      2      1
 1  1  1    -2.6545520084e+00
 1  1  2     6.9973682910e+00
 1  1  3     0.0000000000e+00
 1  2  1     3.4986391836e+00
 1  2  2     1.1351415225e+00
 1  2  3     0.0000000000e+00
 1  3  1     0.0000000000e+00
 1  3  2     0.0000000000e+00
 1  3  3    -5.8367225819e-01
 2  1  1     4.9143162949e-01
 2  1  2    -1.1686307706e+00
 2  1  3     0.0000000000e+00
 2  2  1    -2.6210627603e+00
 2  2  2    -5.7059547902e+00
 2  2  3     0.0000000000e+00
 2  3  1     0.0000000000e+00
 2  3  2     0.0000000000e+00
 2  3  3    -2.0468026587e+00
 3  1  1     0.0000000000e+00
 3  1  2     0.0000000000e+00
 3  1  3    -1.0783095504e+00
 3  2  1     0.0000000000e+00
 3  2  2     0.0000000000e+00
 3  2  3    -6.2256230921e-01
 3  3  1    -2.0644192281e+00
 3  3  2     5.1792632627e-01
 3  3  3     0.0000000000e+00

   14
0.0000000000e+00 0.0000000000e+00 0.0000000000e+00
1.2344081994e+00 -2.1380577186e+00 0.0000000000e+00
     1      2      2
 1  1  1     2.6545520084e+00
 1  1  2    -6.9973682910e+00
 1  1  3     0.0000000000e+00
 1  2  1    -4.9143162949e-01
 1  2  2     1.1686307706e+00
 1  2  3     0.0000000000e+00
 1  3  1     0.0000000000e+00
 1  3  2     0.0000000000e+00
 1  3  3     1.0783095504e+00
 2  1  1    -3.4986391836e+00
 2  1  2    -1.1351415225e+00
 2  1  3     0.0000000000e+00
 2  2  1     2.6210627603e+00
 2  2  2     5.7059547902e+00
 2  2  3     0.0000000000e+00
 2  3  1     0.0000000000e+00
 2  3  2     0.0000000000e+00
 2  3  3     6.2256230921e-01
 3  1  1     0.0000000000e+00
 3  1  2     0.0000000000e+00
 3  1  3     5.8367225819e-01
 3  2  1     0.0000000000e+00
 3  2  2     0.0000000000e+00
 3  2  3     2.0468026587e+00
 3  3  1     2.0644192281e+00
 3  3  2    -5.1792632627e-01
 3  3  3     0.0000000000e+00

   15
0.0000000000e+00 0.0000000000e+00 0.0000000000e+00
1.2344081994e+00 2.1380577186e+00 0.0000000000e+00
     1      2      1
 1  1  1    -1.0271701282e-01
 1  1  2     2.5670497707e+00
 1  1  3     0.0000000000e+00
 1  2  1    -2.1631494752e+00
 1  2  2    -1.1986291058e+00
 1  2  3     0.0000000000e+00
 1  3  1     0.0000000000e+00
 1  3  2     0.0000000000e+00
 1  3  3     3.5172362760e-01
 2  1  1     1.2103415556e+00
 2  1  2     4.6444287584e+00
 2  1  3     0.0000000000e+00
 2  2  1    -3.5485166654e+00
 2  2  2    -4.5900902372e-01
 2  2  3     0.0000000000e+00
 2  3  1     0.0000000000e+00
 2  3  2     0.0000000000e+00
 2  3  3    -2.0306773108e-01
 3  1  1     0.0000000000e+00
 3  1  2     0.0000000000e+00
 3  1  3     8.0336553817e-01
 3  2  1     0.0000000000e+00
 3  2  2     0.0000000000e+00
 3  2  3    -4.6382330972e-01
 3  3  1    -5.6559153540e-01
 3  3  2     3.2654442521e-01
 3  3  3     0.0000000000e+00

   16
0.0000000000e+00 0.0000000000e+00 0.0000000000e+00
1.2344081994e+00 2.1380577186e+00 0.0000000000e+00
     1      2      2
 1  1  1     1.0271701282e-01
 1  1  2    -2.5670497707e+00
 1  1  3     0.0000000000e+00
 1  2  1    -1.2103415556e+00
 1  2  2    -4.6444287584e+00
 1  2  3     0.0000000000e+00
 1  3  1     0.0000000000e+00
 1  3  2     0.0000000000e+00
 1  3  3    -8.0336553817e-01
 2  1  1     2.1631494752e+00
 2  1  2     1.1986291058e+00
 2  1  3     0.0000000000e+00
 2  2  1     3.5485166654e+00
 2  2  2     4.5900902372e-01
 2  2  3     0.0000000000e+00
 2  3  1     0.0000000000e+00
 2  3  2     0.0000000000e+00
 2  3  3     4.6382330972e-01
 3  1  1     0.0000000000e+00
 3  1  2     0.0000000000e+00
 3  1  3    -3.5172362760e-01
 3  2  1     0.0000000000e+00
 3  2  2     0.0000000000e+00
 3  2  3     2.0306773108e-01
 3  3  1     5.6559153540e-01
 3  3  2    -3.2654442521e-01
 3  3  3     0.0000000000e+00

   17
2.4688163987e+00 0.0000000000e+00 0.0000000000e+00
0.0000000000e+00 0.0000000000e+00 0.0000000000e+00
     1      1      1
 1  1  1     0.0000000000e+00
 1  1  2    -7.2279239359e+00
 1  1  3     0.0000000000e+00
 1  2  1    -1.9280308035e+00
 1  2  2     0.0000000000e+00
 1  2  3     0.0000000000e+00
 1  3  1     0.0000000000e+00
 1  3  2     0.0000000000e+00
 1  3  3     0.0000000000e+00
 2  1  1    -7.2279239359e+00
 2  1  2     0.0000000000e+00
 2  1  3     0.0000000000e+00
 2  2  1     0.0000000000e+00
 2  2  2     1.5324859026e+00
 2  2  3     0.0000000000e+00
 2  3  1     0.0000000000e+00
 2  3  2     0.0000000000e+00
 2  3  3    -2.1191748215e+00
 3  1  1     0.0000000000e+00
 3  1  2     0.0000000000e+00
 3  1  3     0.0000000000e+00
 3  2  1     0.0000000000e+00
 3  2  2     0.0000000000e+00
 3  2  3    -7.4522087141e-01
 3  3  1     0.0000000000e+00
 3  3  2    -2.1191748215e+00
 3  3  3     0.0000000000e+00

   18
-2.4688163987e+00 0.0000000000e+00 0.0000000000e+00
0.0000000000e+00 0.0000000000e+00 0.0000000000e+00
     1      1      2
 1  1  1     0.0000000000e+00
 1  1  2     5.5227670536e+00
 1  1  3     0.0000000000e+00
 1  2  1     5.0312455002e+00
 1  2  2     3.7562042828e+00
 1  2  3     0.0000000000e+00
 1  3  1     0.0000000000e+00
 1  3  2     0.0000000000e+00
 1  3  3     1.4807469699e+00
 2  1  1     5.0312455002e+00
 2  1  2    -3.7562042828e+00
 2  1  3     0.0000000000e+00
 2  2  1     0.0000000000e+00
 2  2  2    -1.1081358403e+00
 2  2  3     0.0000000000e+00
 2  3  1     0.0000000000e+00
 2  3  2     0.0000000000e+00
 2  3  3     1.5288763324e+00
 3  1  1     0.0000000000e+00
 3  1  2     0.0000000000e+00
 3  1  3    -1.4807469699e+00
 3  2  1     0.0000000000e+00
 3  2  2     0.0000000000e+00
 3  2  3     1.5288763324e+00
 3  3  1     0.0000000000e+00
 3  3  2     1.2451246184e+00
 3  3  3     0.0000000000e+00

   19
2.4688163987e+00 0.0000000000e+00 0.0000000000e+00
2.4688163987e+00 0.0000000000e+00 0.0000000000e+00
     1      1      1
 1  1  1     0.0000000000e+00
 1  1  2    -7.2279239359e+00
 1  1  3     0.0000000000e+00
 1  2  1    -7.2279239359e+00
 1  2  2     0.0000000000e+00
 1  2  3     0.0000000000e+00
 1  3  1     0.0000000000e+00
 1  3  2     0.0000000000e+00
 1  3  3     0.0000000000e+00
 2  1  1    -1.9280308035e+00
 2  1  2     0.0000000000e+00
 2  1  3     0.0000000000e+00
 2  2  1     0.0000000000e+00
 2  2  2     1.5324859026e+00
 2  2  3     0.0000000000e+00
 2  3  1     0.0000000000e+00
 2  3  2     0.0000000000e+00
 2  3  3    -7.4522087141e-01
 3  1  1     0.0000000000e+00
 3  1  2     0.0000000000e+00
 3  1  3     0.0000000000e+00
 3  2  1     0.0000000000e+00
 3  2  2     0.0000000000e+00
 3  2  3    -2.1191748215e+00
 3  3  1     0.0000000000e+00
 3  3  2    -2.1191748215e+00
 3  3  3     0.0000000000e+00

   20
2.4688163987e+00 0.0000000000e+00 0.0000000000e+00
2.4688163987e+00 0.0000000000e+00 0.0000000000e+00
     1      1      2
 1  1  1     0.0000000000e+00
 1  1  2     5.5227670536e+00
 1  1  3     0.0000000000e+00
 1  2  1     5.0312455002e+00
 1  2  2    -3.7562042828e+00
 1  2  3     0.0000000000e+00
 1  3  1     0.0000000000e+00
 1  3  2     0.0000000000e+00
 1  3  3    -1.4807469699e+00
 2  1  1     5.0312455002e+00
 2  1  2     3.7562042828e+00
 2  1  3     0.0000000000e+00
 2  2  1     0.0000000000e+00
 2  2  2    -1.1081358403e+00
 2  2  3     0.0000000000e+00
 2  3  1     0.0000000000e+00
 2  3  2     0.0000000000e+00
 2  3  3     1.5288763324e+00
 3  1  1     0.0000000000e+00
 3  1  2     0.0000000000e+00
 3  1  3     1.4807469699e+00
 3  2  1     0.0000000000e+00
 3  2  2     0.0000000000e+00
 3  2  3     1.5288763324e+00
 3  3  1     0.0000000000e+00
 3  3  2     1.2451246184e+00
 3  3  3     0.0000000000e+00

   21
2.4688163987e+00 0.0000000000e+00 0.0000000000e+00
1.2344081994e+00 -2.1380577186e+00 0.0000000000e+00
     1      1      1
 1  1  1     0.0000000000e+00
 1  1  2    -4.1760802246e+00
 1  1  3     0.0000000000e+00
 1  2  1     1.7691850397e+00
 1  2  2    -3.4325005008e+00
 1  2  3     0.0000000000e+00
 1  3  1     0.0000000000e+00
 1  3  2     0.0000000000e+00
 1  3  3    -4.6415858114e-02
 2  1  1     1.7691850397e+00
 2  1  2     3.4325005008e+00
 2  1  3     0.0000000000e+00
 2  2  1     0.0000000000e+00
 2  2  2     2.1257004837e-01
 2  2  3     0.0000000000e+00
 2  3  1     0.0000000000e+00
 2  3  2     0.0000000000e+00
 2  3  3     2.6798208177e-02
 3  1  1     0.0000000000e+00
 3  1  2     0.0000000000e+00
 3  1  3     4.6415858114e-02
 3  2  1     0.0000000000e+00
 3  2  2     0.0000000000e+00
 3  2  3     2.6798208177e-02
 3  3  1     0.0000000000e+00
 3  3  2    -5.3596416354e-02
 3  3  3     0.0000000000e+00

   22
2.4688163987e+00 0.0000000000e+00 0.0000000000e+00
1.2344081994e+00 -2.1380577186e+00 0.0000000000e+00
     1      1      2
 1  1  1     0.0000000000e+00
 1  1  2     5.8812371065e+00
 1  1  3     0.0000000000e+00
 1  2  1    -3.5791613852e+00
 1  2  2     0.0000000000e+00
 1  2  3     0.0000000000e+00
 1  3  1     0.0000000000e+00
 1  3  2     0.0000000000e+00
 1  3  3     0.0000000000e+00
 2  1  1    -8.6574495509e-01
 2  1  2     0.0000000000e+00
 2  1  3     0.0000000000e+00
 2  2  1     0.0000000000e+00
 2  2  2    -6.3692010872e-01
 2  2  3     0.0000000000e+00
 2  3  1     0.0000000000e+00
 2  3  2     0.0000000000e+00
 2  3  3     4.0613546215e-01
 3  1  1     0.0000000000e+00
 3  1  2     0.0000000000e+00
 3  1  3     0.0000000000e+00
 3  2  1     0.0000000000e+00
 3  2  2     0.0000000000e+00
 3  2  3    -6.5308885043e-01
 3  3  1     0.0000000000e+00
 3  3  2     9.2764661944e-01
 3  3  3     0.0000000000e+00

   23
2.4688163987e+00 0.0000000000e+00 0.0000000000e+00
1.2344081994e+00 2.1380577186e+00 0.0000000000e+00
     1      1      1
 1  1  1     0.0000000000e+00
 1  1  2    -4.1760802246e+00
 1  1  3     0.0000000000e+00
 1  2  1     1.7691850397e+00
 1  2  2     3.4325005008e+00
 1  2  3     0.0000000000e+00
 1  3  1     0.0000000000e+00
 1  3  2     0.0000000000e+00
 1  3  3     4.6415858114e-02
 2  1  1     1.7691850397e+00
 2  1  2    -3.4325005008e+00
 2  1  3     0.0000000000e+00
 2  2  1     0.0000000000e+00
 2  2  2     2.1257004837e-01
 2  2  3     0.0000000000e+00
 2  3  1     0.0000000000e+00
 2  3  2     0.0000000000e+00
 2  3  3     2.6798208177e-02
 3  1  1     0.0000000000e+00
 3  1  2     0.0000000000e+00
 3  1  3    -4.6415858114e-02
 3  2  1     0.0000000000e+00
 3  2  2     0.0000000000e+00
 3  2  3     2.6798208177e-02
 3  3  1     0.0000000000e+00
 3  3  2    -5.3596416354e-02
 3  3  3     0.0000000000e+00

   24
2.4688163987e+00 0.0000000000e+00 0.0000000000e+00
3.7032245981e+00 -2.1380577186e+00 0.0000000000e+00
     1      1      2
 1  1  1     0.0000000000e+00
 1  1  2     5.8812371065e+00
 1  1  3     0.0000000000e+00
 1  2  1    -8.6574495509e-01
 1  2  2     0.0000000000e+00
 1  2  3     0.0000000000e+00
 1  3  1     0.0000000000e+00
 1  3  2     0.0000000000e+00
 1  3  3     0.0000000000e+00
 2  1  1    -3.5791613852e+00
 2  1  2     0.0000000000e+00
 2  1  3     0.0000000000e+00
 2  2  1     0.0000000000e+00
 2  2  2    -6.3692010872e-01
 2  2  3     0.0000000000e+00
 2  3  1     0.0000000000e+00
 2  3  2     0.0000000000e+00
 2  3  3    -6.5308885043e-01
 3  1  1     0.0000000000e+00
 3  1  2     0.0000000000e+00
 3  1  3     0.0000000000e+00
 3  2  1     0.0000000000e+00
 3  2  2     0.0000000000e+00
 3  2  3     4.0613546215e-01
 3  3  1     0.0000000000e+00
 3  3  2     9.2764661944e-01
 3  3  3     0.0000000000e+00

   25
2.4688163987e+00 0.0000000000e+00 0.0000000000e+00
0.0000000000e+00 0.0000000000e+00 0.0000000000e+00
     1      2      1
 1  1  1    -1.1201600592e+02
 1  1  2    -7.0608160367e+01
 1  1  3     0.0000000000e+00
 1  2  1    -7.0733398547e+01
 1  2  2    -3.7266362342e+01
 1  2  3     0.0000000000e+00
 1  3  1     0.0000000000e+00
 1  3  2     0.0000000000e+00
 1  3  3     1.2874694307e+01
 2  1  1    -7.0608160367e+01
 2  1  2    -3.7483281232e+01
 2  1  3     0.0000000000e+00
 2  2  1    -3.7266362342e+01
 2  2  2    -1.5580055132e+01
 2  2  3     0.0000000000e+00
 2  3  1     0.0000000000e+00
 2  3  2     0.0000000000e+00
 2  3  3     7.4332082236e+00
 3  1  1     0.0000000000e+00
 3  1  2     0.0000000000e+00
 3  1  3     1.1350951955e+01
 3  2  1     0.0000000000e+00
 3  2  2     0.0000000000e+00
 3  2  3     6.5534751668e+00
 3  3  1     1.2874694307e+01
 3  3  2     7.4332082236e+00
 3  3  3     0.0000000000e+00

   26
2.4688163987e+00 0.0000000000e+00 0.0000000000e+00
0.0000000000e+00 0.0000000000e+00 0.0000000000e+00
     1      2      2
 1  1  1     0.0000000000e+00
 1  1  2    -5.0312455002e+00
 1  1  3     0.0000000000e+00
 1  2  1    -5.0312455002e+00
 1  2  2     0.0000000000e+00
 1  2  3     0.0000000000e+00
 1  3  1     0.0000000000e+00
 1  3  2     0.0000000000e+00
 1  3  3     0.0000000000e+00
 2  1  1    -5.5227670536e+00
 2  1  2     3.7562042828e+00
 2  1  3     0.0000000000e+00
 2  2  1    -3.7562042828e+00
 2  2  2     1.1081358403e+00
 2  2  3     0.0000000000e+00
 2  3  1     0.0000000000e+00
 2  3  2     0.0000000000e+00
 2  3  3    -1.2451246184e+00
 3  1  1     0.0000000000e+00
 3  1  2     0.0000000000e+00
 3  1  3     1.4807469699e+00
 3  2  1     0.0000000000e+00
 3  2  2     0.0000000000e+00
 3  2  3    -1.5288763324e+00
 3  3  1    -1.4807469699e+00
 3  3  2    -1.5288763324e+00
 3  3  3     0.0000000000e+00

   27
2.4688163987e+00 0.0000000000e+00 0.0000000000e+00
2.4688163987e+00 0.0000000000e+00 0.0000000000e+00
     1      2      1
 1  1  1     0.0000000000e+00
 1  1  2     5.0312455002e+00
 1  1  3     0.0000000000e+00
 1  2  1     5.5227670536e+00
 1  2  2    -3.7562042828e+00
 1  2  3     0.0000000000e+00
 1  3  1     0.0000000000e+00
 1  3  2     0.0000000000e+00
 1  3  3    -1.4807469699e+00
 2  1  1     5.0312455002e+00
 2  1  2     0.0000000000e+00
 2  1  3     0.0000000000e+00
 2  2  1     3.7562042828e+00
 2  2  2    -1.1081358403e+00
 2  2  3     0.0000000000e+00
 2  3  1     0.0000000000e+00
 2  3  2     0.0000000000e+00
 2  3  3     1.5288763324e+00
 3  1  1     0.0000000000e+00
 3  1  2     0.0000000000e+00
 3  1  3     0.0000000000e+00
 3  2  1     0.0000000000e+00
 3  2  2     0.0000000000e+00
 3  2  3     1.2451246184e+00
 3  3  1     1.4807469699e+00
 3  3  2     1.5288763324e+00
 3  3  3     0.0000000000e+00

   28
2.4688163987e+00 0.0000000000e+00 0.0000000000e+00
2.4688163987e+00 0.0000000000e+00 0.0000000000e+00
     1      2      2
 1  1  1     1.1201600592e+02
 1  1  2     7.0608160367e+01
 1  1  3     0.0000000000e+00
 1  2  1     7.0608160367e+01
 1  2  2     3.7483281232e+01
 1  2  3     0.0000000000e+00
 1  3  1     0.0000000000e+00
 1  3  2     0.0000000000e+00
 1  3  3    -1.1350951955e+01
 2  1  1     7.0733398547e+01
 2  1  2     3.7266362342e+01
 2  1  3     0.0000000000e+00
 2  2  1     3.7266362342e+01
 2  2  2     1.5580055132e+01
 2  2  3     0.0000000000e+00
 2  3  1     0.0000000000e+00
 2  3  2     0.0000000000e+00
 2  3  3    -6.5534751668e+00
 3  1  1     0.0000000000e+00
 3  1  2     0.0000000000e+00
 3  1  3    -1.2874694307e+01
 3  2  1     0.0000000000e+00
 3  2  2     0.0000000000e+00
 3  2  3    -7.4332082236e+00
 3  3  1    -1.2874694307e+01
 3  3  2    -7.4332082236e+00
 3  3  3     0.0000000000e+00

   29
2.4688163987e+00 0.0000000000e+00 0.0000000000e+00
-1.2344081994e+00 2.1380577186e+00 0.0000000000e+00
     1      2      1
 1  1  1     1.0271701282e-01
 1  1  2     2.5670497707e+00
 1  1  3     0.0000000000e+00
 1  2  1    -2.1631494752e+00
 1  2  2     1.1986291058e+00
 1  2  3     0.0000000000e+00
 1  3  1     0.0000000000e+00
 1  3  2     0.0000000000e+00
 1  3  3    -3.5172362760e-01
 2  1  1     1.2103415556e+00
 2  1  2    -4.6444287584e+00
 2  1  3     0.0000000000e+00
 2  2  1     3.5485166654e+00
 2  2  2    -4.5900902372e-01
 2  2  3     0.0000000000e+00
 2  3  1     0.0000000000e+00
 2  3  2     0.0000000000e+00
 2  3  3    -2.0306773108e-01
 3  1  1     0.0000000000e+00
 3  1  2     0.0000000000e+00
 3  1  3    -8.0336553817e-01
 3  2  1     0.0000000000e+00
 3  2  2     0.0000000000e+00
 3  2  3    -4.6382330972e-01
 3  3  1     5.6559153540e-01
 3  3  2     3.2654442521e-01
 3  3  3     0.0000000000e+00

   30
2.4688163987e+00 0.0000000000e+00 0.0000000000e+00
1.2344081994e+00 -2.1380577186e+00 0.0000000000e+00
     1      2      2
 1  1  1    -2.6545520084e+00
 1  1  2    -6.9973682910e+00
 1  1  3     0.0000000000e+00
 1  2  1    -4.9143162949e-01
 1  2  2    -1.1686307706e+00
 1  2  3     0.0000000000e+00
 1  3  1     0.0000000000e+00
 1  3  2     0.0000000000e+00
 1  3  3    -1.0783095504e+00
 2  1  1    -3.4986391836e+00
 2  1  2     1.1351415225e+00
 2  1  3     0.0000000000e+00
 2  2  1    -2.6210627603e+00
 2  2  2     5.7059547902e+00
 2  2  3     0.0000000000e+00
 2  3  1     0.0000000000e+00
 2  3  2     0.0000000000e+00
 2  3  3     6.2256230921e-01
 3  1  1     0.0000000000e+00
 3  1  2     0.0000000000e+00
 3  1  3    -5.8367225819e-01
 3  2  1     0.0000000000e+00
 3  2  2     0.0000000000e+00
 3  2  3     2.0468026587e+00
 3  3  1    -2.0644192281e+00
 3  3  2    -5.1792632627e-01
 3  3  3     0.0000000000e+00

   31
2.4688163987e+00 0.0000000000e+00 0.0000000000e+00
1.2344081994e+00 2.1380577186e+00 0.0000000000e+00
     1      2      1
 1  1  1     2.6545520084e+00
 1  1  2     6.9973682910e+00
 1  1  3     0.0000000000e+00
 1  2  1     3.4986391836e+00
 1  2  2    -1.1351415225e+00
 1  2  3     0.0000000000e+00
 1  3  1     0.0000000000e+00
 1  3  2     0.0000000000e+00
 1  3  3     5.8367225819e-01
 2  1  1     4.9143162949e-01
 2  1  2     1.1686307706e+00
 2  1  3     0.0000000000e+00
 2  2  1     2.6210627603e+00
 2  2  2    -5.7059547902e+00
 2  2  3     0.0000000000e+00
 2  3  1     0.0000000000e+00
 2  3  2     0.0000000000e+00
 2  3  3    -2.0468026587e+00
 3  1  1     0.0000000000e+00
 3  1  2     0.0000000000e+00
 3  1  3     1.0783095504e+00
 3  2  1     0.0000000000e+00
 3  2  2     0.0000000000e+00
 3  2  3    -6.2256230921e-01
 3  3  1     2.0644192281e+00
 3  3  2     5.1792632627e-01
 3  3  3     0.0000000000e+00

   32
2.4688163987e+00 0.0000000000e+00 0.0000000000e+00
1.2344081994e+00 2.1380577186e+00 0.0000000000e+00
     1      2      2
 1  1  1    -1.0271701282e-01
 1  1  2    -2.5670497707e+00
 1  1  3     0.0000000000e+00
 1  2  1    -1.2103415556e+00
 1  2  2     4.6444287584e+00
 1  2  3     0.0000000000e+00
 1  3  1     0.0000000000e+00
 1  3  2     0.0000000000e+00
 1  3  3     8.0336553817e-01
 2  1  1     2.1631494752e+00
 2  1  2    -1.1986291058e+00
 2  1  3     0.0000000000e+00
 2  2  1    -3.5485166654e+00
 2  2  2     4.5900902372e-01
 2  2  3     0.0000000000e+00
 2  3  1     0.0000000000e+00
 2  3  2     0.0000000000e+00
 2  3  3     4.6382330972e-01
 3  1  1     0.0000000000e+00
 3  1  2     0.0000000000e+00
 3  1  3     3.5172362760e-01
 3  2  1     0.0000000000e+00
 3  2  2     0.0000000000e+00