   8    8
1 1
    61.045599658069996     0.000000000000000     0.000000000000000
     0.000000000000000    61.045599658069996    -0.000000000000000
     0.000000000000000    -0.000000000000000    14.417090483010000
1 2
   -10.577478982519999     0.000000000000000     0.000000000000000
     0.000000000000000     3.051994019009999    -0.000000000000000
     0.000000000000000    -0.000000000000000     0.787126471800000
1 3
    -0.355374261400000     5.901734929130000     0.000000000000000
     5.901734929130000    -7.170110702110000     0.000000000000000
     0.000000000000000     0.000000000000000     0.787126471800000
1 4
    -0.355374261400000    -5.901734929130000     0.000000000000000
    -5.901734929130000    -7.170110702110000     0.000000000000000
     0.000000000000000     0.000000000000000     0.787126471800000
1 5
   -20.969502720089999     7.567957180719999    -0.000000000000000
     7.567957180719999   -12.230778479100000     0.000000000000000
    -0.000000000000000     0.000000000000000    -5.175917886170000
1 6
   -20.969502720089999    -7.567957180719999     0.000000000000000
    -7.567957180719999   -12.230778479100000     0.000000000000000
     0.000000000000000     0.000000000000000    -5.175917886170000
1 7
    -7.861416298549999    -0.000000000000000    -0.000000000000000
    -0.000000000000000   -25.338864780529995    -0.000000000000000
    -0.000000000000000    -0.000000000000000    -5.175917886170000
1 8
     0.043049465870000     0.000000000000000    -0.000000000000000
     0.000000000000000     0.043049465870000     0.000000000000000
    -0.000000000000000     0.000000000000000    -1.250716360010000
2 1
   -10.577478982519999     0.000000000000000     0.000000000000000
     0.000000000000000     3.051994019009999    -0.000000000000000
     0.000000000000000    -0.000000000000000     0.787126471800000
2 2
    61.045599658069996     0.000000000000000     0.000000000000000
     0.000000000000000    61.045599658069996    -0.000000000000000
     0.000000000000000    -0.000000000000000    14.417090483010000
2 3
    -0.355374261400000    -5.901734929130000     0.000000000000000
    -5.901734929130000    -7.170110702110000     0.000000000000000
     0.000000000000000     0.000000000000000     0.787126471800000
2 4
    -0.355374261400000     5.901734929130000     0.000000000000000
     5.901734929130000    -7.170110702110000     0.000000000000000
     0.000000000000000     0.000000000000000     0.787126471800000
2 5
   -20.969502720089999    -7.567957180719999     0.000000000000000
    -7.567957180719999   -12.230778479100000     0.000000000000000
     0.000000000000000     0.000000000000000    -5.175917886170000
2 6
   -20.969502720089999     7.567957180719999    -0.000000000000000
     7.567957180719999   -12.230778479100000     0.000000000000000
    -0.000000000000000     0.000000000000000    -5.175917886170000
2 7
     0.043049465870000     0.000000000000000    -0.000000000000000
     0.000000000000000     0.043049465870000     0.000000000000000
    -0.000000000000000     0.000000000000000    -1.250716360010000
2 8
    -7.861416298549999    -0.000000000000000    -0.000000000000000
    -0.000000000000000   -25.338864780529995    -0.000000000000000
    -0.000000000000000    -0.000000000000000    -5.175917886170000
3 1
    -0.355374261400000     5.901734929130000     0.000000000000000
     5.901734929130000    -7.170110702110000     0.000000000000000
     0.000000000000000     0.000000000000000     0.787126471800000
3 2
    -0.355374261400000    -5.901734929130000     0.000000000000000
    -5.901734929130000    -7.170110702110000     0.000000000000000
     0.000000000000000     0.000000000000000     0.787126471800000
3 3
    61.045599658069996     0.000000000000000     0.000000000000000
     0.000000000000000    61.045599658069996    -0.000000000000000
     0.000000000000000    -0.000000000000000    14.417090483010000
3 4
   -10.577478982519999     0.000000000000000     0.000000000000000
     0.000000000000000     3.051994019009999    -0.000000000000000
     0.000000000000000    -0.000000000000000     0.787126471800000
3 5
    -7.861416298549999    -0.000000000000000    -0.000000000000000
    -0.000000000000000   -25.338864780529995    -0.000000000000000
    -0.000000000000000    -0.000000000000000    -5.175917886170000
3 6
     0.043049465870000     0.000000000000000    -0.000000000000000
     0.000000000000000     0.043049465870000     0.000000000000000
    -0.000000000000000     0.000000000000000    -1.250716360010000
3 7
   -20.969502720089999     7.567957180719999    -0.000000000000000
     7.567957180719999   -12.230778479100000     0.000000000000000
    -0.000000000000000     0.000000000000000    -5.175917886170000
3 8
   -20.969502720089999    -7.567957180719999     0.000000000000000
    -7.567957180719999   -12.230778479100000     0.000000000000000
     0.000000000000000     0.000000000000000    -5.175917886170000
4 1
    -0.355374261400000    -5.901734929130000     0.000000000000000
    -5.901734929130000    -7.170110702110000     0.000000000000000
     0.000000000000000     0.000000000000000     0.787126471800000
4 2
    -0.355374261400000     5.901734929130000     0.000000000000000
     5.901734929130000    -7.170110702110000     0.000000000000000
     0.000000000000000     0.000000000000000     0.787126471800000
4 3
   -10.577478982519999     0.000000000000000     0.000000000000000
     0.000000000000000     3.051994019009999    -0.000000000000000
     0.000000000000000    -0.000000000000000     0.787126471800000
4 4
    61.045599658069996     0.000000000000000     0.000000000000000
     0.000000000000000    61.045599658069996    -0.000000000000000
     0.000000000000000    -0.000000000000000    14.417090483010000
4 5
     0.043049465870000     0.000000000000000    -0.000000000000000
     0.000000000000000     0.043049465870000     0.000000000000000
    -0.000000000000000     0.000000000000000    -1.250716360010000
4 6
    -7.861416298549999    -0.000000000000000    -0.000000000000000
    -0.000000000000000   -25.338864780529995    -0.000000000000000
    -0.000000000000000    -0.000000000000000    -5.175917886170000
4 7
   -20.969502720089999    -7.567957180719999     0.000000000000000
    -7.567957180719999   -12.230778479100000     0.000000000000000
     0.000000000000000     0.000000000000000    -5.175917886170000
4 8
   -20.969502720089999     7.567957180719999    -0.000000000000000
     7.567957180719999   -12.230778479100000     0.000000000000000
    -0.000000000000000     0.000000000000000    -5.175917886170000
5 1
   -20.969502720089999     7.567957180719999    -0.000000000000000
     7.567957180719999   -12.230778479100000     0.000000000000000
    -0.000000000000000     0.000000000000000    -5.175917886170000
5 2
   -20.969502720089999    -7.567957180719999     0.000000000000000
    -7.567957180719999   -12.230778479100000     0.000000000000000
     0.000000000000000     0.000000000000000    -5.175917886170000
5 3
    -7.861416298549999    -0.000000000000000    -0.000000000000000
    -0.000000000000000   -25.338864780529995    -0.000000000000000
    -0.000000000000000    -0.000000000000000    -5.175917886170000
5 4
     0.043049465870000     0.000000000000000    -0.000000000000000
     0.000000000000000     0.043049465870000     0.000000000000000
    -0.000000000000000     0.000000000000000    -1.250716360010000
5 5
    61.045599658069996     0.000000000000000     0.000000000000000
     0.000000000000000    61.045599658069996    -0.000000000000000
     0.000000000000000    -0.000000000000000    14.417090483010000
5 6
   -10.577478982519999     0.000000000000000     0.000000000000000
     0.000000000000000     3.051994019009999    -0.000000000000000
     0.000000000000000    -0.000000000000000     0.787126471800000
5 7
    -0.355374261400000     5.901734929130000     0.000000000000000
     5.901734929130000    -7.170110702110000     0.000000000000000
     0.000000000000000     0.000000000000000     0.787126471800000
5 8
    -0.355374261400000    -5.901734929130000     0.000000000000000
    -5.901734929130000    -7.170110702110000     0.000000000000000
     0.000000000000000     0.000000000000000     0.787126471800000
6 1
   -20.969502720089999    -7.567957180719999     0.000000000000000
    -7.567957180719999   -12.230778479100000     0.000000000000000
     0.000000000000000     0.000000000000000    -5.175917886170000
6 2
   -20.969502720089999     7.567957180719999    -0.000000000000000
     7.567957180719999   -12.230778479100000     0.000000000000000
    -0.000000000000000     0.000000000000000    -5.175917886170000
6 3
     0.043049465870000     0.000000000000000    -0.000000000000000
     0.000000000000000     0.043049465870000     0.000000000000000
    -0.000000000000000     0.000000000000000    -1.250716360010000
6 4
    -7.861416298549999    -0.000000000000000    -0.000000000000000
    -0.000000000000000   -25.338864780529995    -0.000000000000000
    -0.000000000000000    -0.000000000000000    -5.175917886170000
6 5
   -10.577478982519999     0.000000000000000     0.000000000000000
     0.000000000000000     3.051994019009999    -0.000000000000000
     0.000000000000000    -0.000000000000000     0.787126471800000
6 6
    61.045599658069996     0.000000000000000     0.000000000000000
     0.000000000000000    61.045599658069996    -0.000000000000000
     0.000000000000000    -0.000000000000000    14.417090483010000
6 7
    -0.355374261400000    -5.901734929130000     0.000000000000000
    -5.901734929130000    -7.170110702110000     0.000000000000000
     0.000000000000000     0.000000000000000     0.787126471800000
6 8
    -0.355374261400000     5.901734929130000     0.000000000000000
     5.901734929130000    -7.170110702110000     0.000000000000000
     0.000000000000000     0.000000000000000     0.787126471800000
7 1
    -7.861416298549999    -0.000000000000000    -0.000000000000000
    -0.000000000000000   -25.338864780529995    -0.000000000000000
    -0.000000000000000    -0.000000000000000    -5.175917886170000
7 2
     0.043049465870000     0.000000000000000    -0.000000000000000
     0.000000000000000     0.043049465870000     0.000000000000000
    -0.000000000000000     0.000000000000000    -1.250716360010000
7 3
   -20.969502720089999     7.567957180719999    -0.000000000000000
     7.567957180719999   -12.230778479100000     0.000000000000000
    -0.000000000000000     0.000000000000000    -5.175917886170000
7 4
   -20.969502720089999    -7.567957180719999     0.000000000000000
    -7.567957180719999   -12.230778479100000     0.000000000000000
     0.000000000000000     0.000000000000000    -5.175917886170000
7 5
    -0.355374261400000     5.901734929130000     0.000000000000000
     5.901734929130000    -7.170110702110000     0.000000000000000
     0.000000000000000     0.000000000000000     0.787126471800000
7 6
    -0.355374261400000    -5.901734929130000     0.000000000000000
    -5.901734929130000    -7.170110702110000     0.000000000000000
     0.000000000000000     0.000000000000000     0.787126471800000
7 7
    61.045599658069996     0.000000000000000     0.000000000000000
     0.000000000000000    61.045599658069996    -0.000000000000000
     0.000000000000000    -0.000000000000000    14.417090483010000
7 8
   -10.577478982519999     0.000000000000000     0.000000000000000
     0.000000000000000     3.051994019009999    -0.000000000000000
     0.000000000000000    -0.000000000000000     0.787126471800000
8 1
     0.043049465870000     0.000000000000000    -0.000000000000000
     0.000000000000000     0.043049465870000     0.000000000000000
    -0.000000000000000     0.000000000000000    -1.250716360010000
8 2
    -7.861416298549999    -0.000000000000000    -0.000000000000000
    -0.000000000000000   -25.338864780529995    -0.000000000000000
    -0.000000000000000    -0.000000000000000    -5.175917886170000
8 3
   -20.969502720089999    -7.567957180719999     0.000000000000000
    -7.567957180719999   -12.230778479100000     0.000000000000000
     0.000000000000000     0.000000000000000    -5.175917886170000
8 4
   -20.969502720089999     7.567957180719999    -0.000000000000000
     7.567957180719999   -12.230778479100000     0.000000000000000
    -0.000000000000000     0.000000000000000    -5.175917886170000
8 5
    -0.355374261400000    -5.901734929130000     0.000000000000000
    -5.901734929130000    -7.170110702110000     0.000000000000000
     0.000000000000000     0.000000000000000     0.787126471800000
8 6
    -0.355374261400000     5.901734929130000     0.000000000000000
     5.901734929130000    -7.170110702110000     0.000000000000000
     0.000000000000000     0.000000000000000     0.787126471800000
8 7
   -10.577478982519999     0.000000000000000     0.000000000000000
     0.000000000000000     3.051994019009999    -0.000000000000000
     0.000000000000000    -0.000000000000000     0.787126471800000
8 8
    61.045599658069996     0.000000000000000     0.000000000000000
     0.000000000000000    61.045599658069996    -0.000000000000000
     0.000000000000000    -0.000000000000000    14.417090483010000