<?xml version="1.0" encoding="ISO-8859-1"?>
<modeling>
 <generator>
  <i name="program" type="string">vasp </i>
  <i name="version" type="string">5.4.4.18Apr17-6-g9f103f2a35  </i>
  <i name="subversion" type="string">(build Dec 24 2020 13:49:33) complex            parallel </i>
  <i name="platform" type="string">LinuxIFC </i>
  <i name="date" type="string">2022 03 22 </i>
  <i name="time" type="string">18:33:03 </i>
 </generator>
 <incar>
  <i type="string" name="SYSTEM">optimize1</i>
  <i type="int" name="ISTART">     0</i>
  <i type="string" name="PREC">accurate</i>
  <i type="logical" name="ADDGRID"> T  </i>
  <i type="int" name="ISPIN">     1</i>
  <i type="int" name="ICHARG">     2</i>
  <i type="int" name="NELM">    60</i>
  <i type="int" name="NELMDL">    -3</i>
  <i type="int" name="NELMIN">     4</i>
  <i type="int" name="IBRION">     2</i>
  <i name="EDIFF">      0.00000100</i>
  <i name="EDIFFG">     -0.01000000</i>
  <i type="int" name="NSW">   520</i>
  <i type="int" name="ISIF">     3</i>
  <i name="ENCUT">    380.00000000</i>
  <i type="logical" name="LREAL"> F  </i>
  <i type="int" name="ISMEAR">     0</i>
  <i name="SIGMA">      0.10000000</i>
  <i type="logical" name="LWAVE"> F  </i>
  <i type="logical" name="LCHARG"> F  </i>
  <v type="int" name="KPOINT_BSE">    -1     0     0     0</v>
  <i type="int" name="NELM">    60</i>
 </incar>
 <structure name="primitive_cell" >
  <crystal>
   <varray name="basis" >
    <v>       4.52643013       0.00000000       0.00000000 </v>
    <v>       0.00000000       4.03236008       0.00000000 </v>
    <v>       0.00000000       0.00000000      20.00000000 </v>
   </varray>
   <i name="volume">    365.04392294 </i>
   <varray name="rec_basis" >
    <v>       0.22092465       0.00000000       0.00000000 </v>
    <v>       0.00000000       0.24799373       0.00000000 </v>
    <v>       0.00000000       0.00000000       0.05000000 </v>
   </varray>
  </crystal>
  <varray name="positions" >
   <v>       0.04325900      -0.29277700      -0.43431401 </v>
   <v>      -0.31267399       0.20717201      -0.43908697 </v>
   <v>       0.17888799      -0.29290801       0.42961600 </v>
   <v>      -0.38531601       0.20708700       0.44114801 </v>
  </varray>
 </structure>
 <varray name="primitive_index" >
  <v type="int" >        1 </v>
  <v type="int" >        4 </v>
  <v type="int" >        3 </v>
  <v type="int" >        2 </v>
 </varray>
 <kpoints>
  <generation param="Gamma">
   <v type="int" name="divisions">       7        7        1 </v>
   <v name="usershift">      0.00000000       0.00000000       0.00000000 </v>
   <v name="genvec1">      0.14285714       0.00000000       0.00000000 </v>
   <v name="genvec2">      0.00000000       0.14285714       0.00000000 </v>
   <v name="genvec3">      0.00000000       0.00000000       1.00000000 </v>
   <v name="shift">      0.00000000       0.00000000       0.00000000 </v>
  </generation>
  <varray name="kpointlist" >
   <v>       0.00000000       0.00000000       0.00000000 </v>
   <v>       0.14285714       0.00000000       0.00000000 </v>
   <v>       0.28571429       0.00000000       0.00000000 </v>
   <v>       0.42857143       0.00000000       0.00000000 </v>
   <v>       0.00000000       0.14285714       0.00000000 </v>
   <v>       0.14285714       0.14285714       0.00000000 </v>
   <v>       0.28571429       0.14285714       0.00000000 </v>
   <v>       0.42857143       0.14285714       0.00000000 </v>
   <v>      -0.42857143       0.14285714       0.00000000 </v>
   <v>      -0.28571429       0.14285714       0.00000000 </v>
   <v>      -0.14285714       0.14285714       0.00000000 </v>
   <v>       0.00000000       0.28571429       0.00000000 </v>
   <v>       0.14285714       0.28571429       0.00000000 </v>
   <v>       0.28571429       0.28571429       0.00000000 </v>
   <v>       0.42857143       0.28571429       0.00000000 </v>
   <v>      -0.42857143       0.28571429       0.00000000 </v>
   <v>      -0.28571429       0.28571429       0.00000000 </v>
   <v>      -0.14285714       0.28571429       0.00000000 </v>
   <v>       0.00000000       0.42857143       0.00000000 </v>
   <v>       0.14285714       0.42857143       0.00000000 </v>
   <v>       0.28571429       0.42857143       0.00000000 </v>
   <v>       0.42857143       0.42857143       0.00000000 </v>
   <v>      -0.42857143       0.42857143       0.00000000 </v>
   <v>      -0.28571429       0.42857143       0.00000000 </v>
   <v>      -0.14285714       0.42857143       0.00000000 </v>
  </varray>
  <varray name="weights" >
   <v>       0.02040816 </v>
   <v>       0.04081633 </v>
   <v>       0.04081633 </v>
   <v>       0.04081633 </v>
   <v>       0.04081633 </v>
   <v>       0.04081633 </v>
   <v>       0.04081633 </v>
   <v>       0.04081633 </v>
   <v>       0.04081633 </v>
   <v>       0.04081633 </v>
   <v>       0.04081633 </v>
   <v>       0.04081633 </v>
   <v>       0.04081633 </v>
   <v>       0.04081633 </v>
   <v>       0.04081633 </v>
   <v>       0.04081633 </v>
   <v>       0.04081633 </v>
   <v>       0.04081633 </v>
   <v>       0.04081633 </v>
   <v>       0.04081633 </v>
   <v>       0.04081633 </v>
   <v>       0.04081633 </v>
   <v>       0.04081633 </v>
   <v>       0.04081633 </v>
   <v>       0.04081633 </v>
  </varray>
 </kpoints>
 <parameters>
  <separator name="general" >
   <i type="string" name="SYSTEM">optimize1</i>
   <i type="logical" name="LCOMPAT"> F  </i>
  </separator>
  <separator name="electronic" >
   <i type="string" name="PREC">accura</i>
   <i name="ENMAX">    380.00000000</i>
   <i name="ENAUG">    531.35600000</i>
   <i name="EDIFF">      0.00000100</i>
   <i type="int" name="IALGO">    38</i>
   <i type="int" name="IWAVPR">    11</i>
   <i type="int" name="NBANDS">    24</i>
   <i name="NELECT">     40.00000000</i>
   <i type="int" name="TURBO">     0</i>
   <i type="int" name="IRESTART">     0</i>
   <i type="int" name="NREBOOT">     0</i>
   <i type="int" name="NMIN">     0</i>
   <i name="EREF">      0.00000000</i>
   <separator name="electronic smearing" >
    <i type="int" name="ISMEAR">     0</i>
    <i name="SIGMA">      0.10000000</i>
    <i name="KSPACING">      0.50000000</i>
    <i type="logical" name="KGAMMA"> T  </i>
   </separator>
   <separator name="electronic projectors" >
    <i type="logical" name="LREAL"> F  </i>
    <v name="ROPT">      0.00000000      0.00000000      0.00000000</v>
    <i type="int" name="LMAXPAW">  -100</i>
    <i type="int" name="LMAXMIX">     2</i>
    <i type="logical" name="NLSPLINE"> F  </i>
   </separator>
   <separator name="electronic startup" >
    <i type="int" name="ISTART">     0</i>
    <i type="int" name="ICHARG">     2</i>
    <i type="int" name="INIWAV">     1</i>
   </separator>
   <separator name="electronic spin" >
    <i type="int" name="ISPIN">     1</i>
    <i type="logical" name="LNONCOLLINEAR"> F  </i>
    <v name="MAGMOM">      1.00000000      1.00000000      1.00000000      1.00000000</v>
    <i name="NUPDOWN">     -1.00000000</i>
    <i type="logical" name="LSORBIT"> F  </i>
    <v name="SAXIS">      0.00000000      0.00000000      1.00000000</v>
    <i type="logical" name="LSPIRAL"> F  </i>
    <v name="QSPIRAL">      0.00000000      0.00000000      0.00000000</v>
    <i type="logical" name="LZEROZ"> F  </i>
   </separator>
   <separator name="electronic exchange-correlation" >
    <i type="logical" name="LASPH"> F  </i>
    <i type="logical" name="LMETAGGA"> F  </i>
   </separator>
   <separator name="electronic convergence" >
    <i type="int" name="NELM">    60</i>
    <i type="int" name="NELMDL">    -3</i>
    <i type="int" name="NELMIN">     4</i>
    <i name="ENINI">    380.00000000</i>
    <separator name="electronic convergence detail" >
     <i type="logical" name="LDIAG"> T  </i>
     <i type="logical" name="LSUBROT"> F  </i>
     <i name="WEIMIN">      0.00100000</i>
     <i name="EBREAK">      0.00000001</i>
     <i name="DEPER">      0.30000000</i>
     <i type="int" name="NRMM">     4</i>
     <i name="TIME">      0.40000000</i>
    </separator>
   </separator>
   <separator name="electronic mixer" >
    <i name="AMIX">      0.40000000</i>
    <i name="BMIX">      1.00000000</i>
    <i name="AMIN">      0.10000000</i>
    <i name="AMIX_MAG">      1.60000000</i>
    <i name="BMIX_MAG">      1.00000000</i>
    <separator name="electronic mixer details" >
     <i type="int" name="IMIX">     4</i>
     <i type="logical" name="MIXFIRST"> F  </i>
     <i type="int" name="MAXMIX">   -45</i>
     <i name="WC">    100.00000000</i>
     <i type="int" name="INIMIX">     1</i>
     <i type="int" name="MIXPRE">     1</i>
     <i type="int" name="MREMOVE">     5</i>
    </separator>
   </separator>
   <separator name="electronic dipolcorrection" >
    <i type="logical" name="LDIPOL"> F  </i>
    <i type="logical" name="LMONO"> F  </i>
    <i type="int" name="IDIPOL">     0</i>
    <i name="EPSILON">      1.00000000</i>
    <v name="DIPOL">   -100.00000000   -100.00000000   -100.00000000</v>
    <i name="EFIELD">      0.00000000</i>
   </separator>
  </separator>
  <separator name="grids" >
   <i type="int" name="NGX">    30</i>
   <i type="int" name="NGY">    28</i>
   <i type="int" name="NGZ">   128</i>
   <i type="int" name="NGXF">    60</i>
   <i type="int" name="NGYF">    56</i>
   <i type="int" name="NGZF">   256</i>
   <i type="logical" name="ADDGRID"> T  </i>
  </separator>
  <separator name="ionic" >
   <i type="int" name="NSW">   520</i>
   <i type="int" name="IBRION">     2</i>
   <i type="int" name="MDALGO">     0</i>
   <i type="int" name="ISIF">     3</i>
   <i name="PSTRESS">      0.00000000</i>
   <i name="EDIFFG">     -0.01000000</i>
   <i type="int" name="NFREE">     1</i>
   <i name="POTIM">      0.50000000</i>
   <i name="SMASS">     -3.00000000</i>
   <i name="SCALEE">      1.00000000</i>
  </separator>
  <separator name="ionic md" >
   <i name="TEBEG">      0.00010000</i>
   <i name="TEEND">      0.00010000</i>
   <i type="int" name="NBLOCK">     1</i>
   <i type="int" name="KBLOCK">   520</i>
   <i type="int" name="NPACO">   256</i>
   <i name="APACO">     16.00000000</i>
  </separator>
  <separator name="symmetry" >
   <i type="int" name="ISYM">     2</i>
   <i name="SYMPREC">      0.00001000</i>
  </separator>
  <separator name="dos" >
   <i type="int" name="LORBIT">     0</i>
   <v name="RWIGS">     -1.00000000     -1.00000000     -1.00000000</v>
   <i type="int" name="NEDOS">   301</i>
   <i name="EMIN">     10.00000000</i>
   <i name="EMAX">    -10.00000000</i>
   <i name="EFERMI">      0.00000000</i>
  </separator>
  <separator name="writing" >
   <i type="int" name="NWRITE">     2</i>
   <i type="logical" name="LWAVE"> F  </i>
   <i type="logical" name="LDOWNSAMPLE"> F  </i>
   <i type="logical" name="LCHARG"> F  </i>
   <i type="logical" name="LPARD"> F  </i>
   <i type="logical" name="LVTOT"> F  </i>
   <i type="logical" name="LVHAR"> F  </i>
   <i type="logical" name="LELF"> F  </i>
   <i type="logical" name="LOPTICS"> F  </i>
   <v name="STM">      0.00000000      0.00000000      0.00000000      0.00000000      0.00000000      0.00000000      0.00000000</v>
  </separator>
  <separator name="performance" >
   <i type="int" name="NPAR">     4</i>
   <i type="int" name="NSIM">     4</i>
   <i type="int" name="NBLK">    -1</i>
   <i type="logical" name="LPLANE"> T  </i>
   <i type="logical" name="LSCALAPACK"> T  </i>
   <i type="logical" name="LSCAAWARE"> F  </i>
   <i type="logical" name="LSCALU"> F  </i>
   <i type="logical" name="LASYNC"> F  </i>
   <i type="logical" name="LORBITALREAL"> F  </i>
  </separator>
  <separator name="miscellaneous" >
   <i type="int" name="IDIOT">     3</i>
   <i type="int" name="ISPECIAL">     0</i>
   <i type="logical" name="LMUSIC"> F  </i>
   <v name="POMASS">     72.61000000    127.60000000     32.06600000</v>
   <v name="DARWINR">      0.00000000      0.00000000      0.00000000</v>
   <v name="DARWINV">      1.00000000      1.00000000      1.00000000</v>
   <i type="logical" name="LCORR"> T  </i>
  </separator>
  <i type="logical" name="GGA_COMPAT"> T  </i>
  <i type="logical" name="LBERRY"> F  </i>
  <i type="int" name="ICORELEVEL">     0</i>
  <i type="logical" name="LDAU"> F  </i>
  <i type="int" name="I_CONSTRAINED_M">     0</i>
  <separator name="electronic exchange-correlation" >
   <i type="string" name="GGA">--</i>
   <i type="int" name="VOSKOWN">     0</i>
   <i type="logical" name="LHFCALC"> F  </i>
   <i type="string" name="PRECFOCK"></i>
   <i type="logical" name="LSYMGRAD"> F  </i>
   <i type="logical" name="LHFONE"> F  </i>
   <i type="logical" name="LRHFCALC"> F  </i>
   <i type="logical" name="LTHOMAS"> F  </i>
   <i type="logical" name="LMODELHF"> F  </i>
   <i name="ENCUT4O">     -1.00000000</i>
   <i type="int" name="EXXOEP">     0</i>
   <i type="int" name="FOURORBIT">     0</i>
   <i name="AEXX">      0.00000000</i>
   <i name="HFALPHA">      0.00000000</i>
   <i name="MCALPHA">      0.00000000</i>
   <i name="ALDAX">      1.00000000</i>
   <i name="AGGAX">      1.00000000</i>
   <i name="ALDAC">      1.00000000</i>
   <i name="AGGAC">      1.00000000</i>
   <i type="int" name="NKREDX">     1</i>
   <i type="int" name="NKREDY">     1</i>
   <i type="int" name="NKREDZ">     1</i>
   <i type="logical" name="SHIFTRED"> F  </i>
   <i type="logical" name="ODDONLY"> F  </i>
   <i type="logical" name="EVENONLY"> F  </i>
   <i type="int" name="LMAXFOCK">     0</i>
   <i type="int" name="NMAXFOCKAE">     0</i>
   <i type="logical" name="LFOCKAEDFT"> F  </i>
   <i name="HFSCREEN">      0.00000000</i>
   <i name="HFSCREENC">      0.00000000</i>
   <i type="int" name="NBANDSGWLOW">     0</i>
  </separator>
  <separator name="vdW DFT" >
   <i type="logical" name="LUSE_VDW"> F  </i>
   <i name="Zab_VDW">     -0.84910000</i>
   <i name="PARAM1">      0.12340000</i>
   <i name="PARAM2">      1.00000000</i>
   <i name="PARAM3">      0.00000000</i>
  </separator>
  <separator name="model GW" >
   <i type="int" name="MODEL_GW">     0</i>
   <i name="MODEL_EPS0">     54.75658844</i>
   <i name="MODEL_ALPHA">      1.00000000</i>
  </separator>
  <separator name="linear response parameters" >
   <i type="logical" name="LEPSILON"> F  </i>
   <i type="logical" name="LRPA"> F  </i>
   <i type="logical" name="LNABLA"> F  </i>
   <i type="logical" name="LVEL"> F  </i>
   <i type="int" name="KINTER">     0</i>
   <i name="CSHIFT">      0.10000000</i>
   <i name="OMEGAMAX">     -1.00000000</i>
   <i name="DEG_THRESHOLD">      0.00200000</i>
   <i name="RTIME">     -0.10000000</i>
   <i name="WPLASMAI">      0.00000000</i>
   <v name="DFIELD">      0.00000000      0.00000000      0.00000000</v>
   <v name="WPLASMA">      0.00000000      0.00000000      0.00000000      0.00000000      0.00000000      0.00000000      0.00000000      0.00000000      0.00000000</v>
  </separator>
  <separator name="orbital magnetization" >
   <i type="logical" name="NUCIND"> F  </i>
   <v name="MAGPOS">      0.00000000      0.00000000      0.00000000</v>
   <i type="logical" name="LNICSALL"> T  </i>
   <i type="logical" name="ORBITALMAG"> F  </i>
   <i type="logical" name="LMAGBLOCH"> F  </i>
   <i type="logical" name="LCHIMAG"> F  </i>
   <i type="logical" name="LGAUGE"> T  </i>
   <i type="int" name="MAGATOM">     0</i>
   <v name="MAGDIPOL">      0.00000000      0.00000000      0.00000000</v>
   <v name="AVECCONST">      0.00000000      0.00000000      0.00000000</v>
  </separator>
  <separator name="response functions" >
   <i type="logical" name="LADDER"> F  </i>
   <i type="logical" name="LRPAFORCE"> F  </i>
   <i type="logical" name="LFXC"> F  </i>
   <i type="logical" name="LHARTREE"> T  </i>
   <i type="int" name="IBSE">     0</i>
   <v type="int" name="KPOINT">    -1     0     0     0</v>
   <i type="logical" name="LTCTE"> F  </i>
   <i type="logical" name="LTETE"> F  </i>
   <i type="logical" name="LTRIPLET"> F  </i>
   <i type="logical" name="LFXCEPS"> F  </i>
   <i type="logical" name="LFXHEG"> F  </i>
   <i type="int" name="NATURALO">     2</i>
   <i type="logical" name="L2ORDER"> F  </i>
   <i type="logical" name="LMP2LT"> F  </i>
   <i type="logical" name="LUSEW"> F  </i>
   <i name="ENCUTGW">     -2.00000000</i>
   <i name="ENCUTGWSOFT">     -2.00000000</i>
   <i name="ENCUTLF">     -1.00000000</i>
   <i type="int" name="LMAXMP2">    -1</i>
   <i name="SCISSOR">      0.00000000</i>
   <i type="int" name="NOMEGA">     0</i>
   <i type="int" name="NOMEGAR">     0</i>
   <i type="int" name="NBANDSGW">    -1</i>
   <i type="int" name="NBANDSO">    -1</i>
   <i type="int" name="NBANDSV">    -1</i>
   <i type="int" name="NELM">    60</i>
   <i type="int" name="NELMHF">     1</i>
   <i type="int" name="DIM">     3</i>
   <i type="int" name="ANTIRES">     0</i>
   <i name="OMEGAMAX">    -30.00000000</i>
   <i name="OMEGAMIN">    -30.00000000</i>
   <i name="OMEGATL">   -200.00000000</i>
   <i type="int" name="OMEGAGRID">   140</i>
   <i name="CSHIFT">     -0.10000000</i>
   <i type="logical" name="SELFENERGY"> F  </i>
   <i type="logical" name="LSPECTRAL"> F  </i>
   <i type="logical" name="LSPECTRALGW"> F  </i>
   <i type="logical" name="LSINGLES"> F  </i>
   <i type="logical" name="LFERMIGW"> F  </i>
   <i type="logical" name="ODDONLYGW"> F  </i>
   <i type="logical" name="EVENONLYGW"> F  </i>
   <i type="int" name="NKREDLFX">     1</i>
   <i type="int" name="NKREDLFY">     1</i>
   <i type="int" name="NKREDLFZ">     1</i>
   <i type="int" name="MAXMEM">  2800</i>
   <i type="int" name="TELESCOPE">     0</i>
   <i type="int" name="TAUPAR">     1</i>
   <i type="int" name="OMEGAPAR">    -1</i>
   <i name="LAMBDA">      1.00000000</i>
  </separator>
  <separator name="External order field" >
   <i name="OFIELD_KAPPA">      0.00000000</i>
   <v name="OFIELD_K">      0.00000000      0.00000000      0.00000000</v>
   <i name="OFIELD_Q6_NEAR">      0.00000000</i>
   <i name="OFIELD_Q6_FAR">      0.00000000</i>
   <i name="OFIELD_A">      0.00000000</i>
  </separator>
  <separator name="solvation model" >
   <i type="logical" name="LSOL"> F  </i>
  </separator>
 </parameters>
 <atominfo>
  <atoms>       4 </atoms>
  <types>       3 </types>
  <array name="atoms" >
   <dimension dim="1">ion</dimension>
   <field type="string">element</field>
   <field type="int">atomtype</field>
   <set>
    <rc><c>Ge</c><c>   1</c></rc>
    <rc><c>Ge</c><c>   1</c></rc>
    <rc><c>Te</c><c>   2</c></rc>
    <rc><c>S </c><c>   3</c></rc>
   </set>
  </array>
  <array name="atomtypes" >
   <dimension dim="1">type</dimension>
   <field type="int">atomspertype</field>
   <field type="string">element</field>
   <field>mass</field>
   <field>valence</field>
   <field type="string">pseudopotential</field>
   <set>
    <rc><c>   2</c><c>Ge</c><c>     72.61000000</c><c>     14.00000000</c><c>  PAW_PBE Ge_d 03Jul2007                </c></rc>
    <rc><c>   1</c><c>Te</c><c>    127.60000000</c><c>      6.00000000</c><c>  PAW_PBE Te 08Apr2002                  </c></rc>
    <rc><c>   1</c><c>S </c><c>     32.06600000</c><c>      6.00000000</c><c>  PAW_PBE S 06Sep2000                   </c></rc>
   </set>
  </array>
 </atominfo>
 <structure name="initialpos" >
  <crystal>
   <varray name="basis" >
    <v>       4.52643013       0.00000000       0.00000000 </v>
    <v>       0.00000000       4.03236008       0.00000000 </v>
    <v>       0.00000000       0.00000000      20.00000000 </v>
   </varray>
   <i name="volume">    365.04392294 </i>
   <varray name="rec_basis" >
    <v>       0.22092465       0.00000000       0.00000000 </v>
    <v>       0.00000000       0.24799373       0.00000000 </v>
    <v>       0.00000000       0.00000000       0.05000000 </v>
   </varray>
  </crystal>
  <varray name="positions" >
   <v>       0.04325900       0.70722300       0.56568599 </v>
   <v>       0.61468399       0.20708699       0.44114801 </v>
   <v>       0.17888799       0.70709199       0.42961600 </v>
   <v>       0.68732601       0.20717201       0.56091303 </v>
  </varray>
 </structure>
 <calculation>
  <scstep>
   <time name="dav">    0.27    0.27</time>
   <time name="total">    0.30    0.34</time>
   <energy>
    <i name="alphaZ">     26.16214405 </i>
    <i name="ewald">   4893.86146600 </i>
    <i name="hartreedc">  -9232.99097226 </i>
    <i name="XCdc">    128.49071187 </i>
    <i name="pawpsdc">   4098.45997616 </i>
    <i name="pawaedc">  -4926.71093040 </i>
    <i name="eentropy">     -0.00717464 </i>
    <i name="bandstr">   -416.37268836 </i>
    <i name="atom">   5692.52704122 </i>
    <i name="e_fr_energy">    263.41957363 </i>
    <i name="e_wo_entrp">    263.42674826 </i>
    <i name="e_0_energy">    263.42316095 </i>
   </energy>
  </scstep>
  <scstep>
   <time name="dav">    0.27    0.27</time>
   <time name="total">    0.27    0.27</time>
   <energy>
    <i name="e_fr_energy">     18.36248877 </i>
    <i name="e_wo_entrp">     18.36499756 </i>
    <i name="e_0_energy">     18.36374317 </i>
   </energy>
  </scstep>
  <scstep>
   <time name="dav">    0.30    0.30</time>
   <time name="total">    0.32    0.33</time>
   <energy>
    <i name="e_fr_energy">    -15.87709699 </i>
    <i name="e_wo_entrp">    -15.87709699 </i>
    <i name="e_0_energy">    -15.87709699 </i>
   </energy>
  </scstep>
  <scstep>
   <time name="dav">    0.26    0.26</time>
   <time name="total">    0.31    0.31</time>
   <energy>
    <i name="e_fr_energy">    -16.66043307 </i>
    <i name="e_wo_entrp">    -16.66043307 </i>
    <i name="e_0_energy">    -16.66043307 </i>
   </energy>
  </scstep>
  <scstep>
   <time name="dav">    0.33    0.33</time>
   <time name="total">    0.38    0.38</time>
   <energy>
    <i name="e_fr_energy">    -16.66920953 </i>
    <i name="e_wo_entrp">    -16.66920953 </i>
    <i name="e_0_energy">    -16.66920953 </i>
   </energy>
  </scstep>
  <scstep>
   <time name="dav">    0.27    0.27</time>
   <time name="total">    0.31    0.32</time>
   <energy>
    <i name="e_fr_energy">    -16.66539900 </i>
    <i name="e_wo_entrp">    -16.66539900 </i>
    <i name="e_0_energy">    -16.66539900 </i>
   </energy>
  </scstep>
  <scstep>
   <time name="dav">    0.31    0.31</time>
   <time name="total">    0.36    0.36</time>
   <energy>
    <i name="e_fr_energy">    -16.66061958 </i>
    <i name="e_wo_entrp">    -16.66061958 </i>
    <i name="e_0_energy">    -16.66061958 </i>
   </energy>
  </scstep>
  <scstep>
   <time name="dav">    0.27    0.27</time>
   <time name="total">    0.32    0.32</time>
   <energy>
    <i name="e_fr_energy">    -16.65935992 </i>
    <i name="e_wo_entrp">    -16.65935992 </i>
    <i name="e_0_energy">    -16.65935992 </i>
   </energy>
  </scstep>
  <scstep>
   <time name="dav">    0.26    0.26</time>
   <time name="total">    0.31    0.31</time>
   <energy>
    <i name="e_fr_energy">    -16.65852722 </i>
    <i name="e_wo_entrp">    -16.65852722 </i>
    <i name="e_0_energy">    -16.65852722 </i>
   </energy>
  </scstep>
  <scstep>
   <time name="dav">    0.27    0.27</time>
   <time name="total">    0.32    0.32</time>
   <energy>
    <i name="e_fr_energy">    -16.65833710 </i>
    <i name="e_wo_entrp">    -16.65833710 </i>
    <i name="e_0_energy">    -16.65833710 </i>
   </energy>
  </scstep>
  <scstep>
   <time name="dav">    0.22    0.22</time>
   <time name="total">    0.27    0.27</time>
   <energy>
    <i name="e_fr_energy">    -16.65848021 </i>
    <i name="e_wo_entrp">    -16.65848021 </i>
    <i name="e_0_energy">    -16.65848021 </i>
   </energy>
  </scstep>
  <scstep>
   <time name="dav">    0.22    0.22</time>
   <time name="total">    0.26    0.27</time>
   <energy>
    <i name="e_fr_energy">    -16.65896331 </i>
    <i name="e_wo_entrp">    -16.65896331 </i>
    <i name="e_0_energy">    -16.65896331 </i>
   </energy>
  </scstep>
  <scstep>
   <time name="dav">    0.24    0.25</time>
   <time name="total">    0.29    0.29</time>
   <energy>
    <i name="e_fr_energy">    -16.65908758 </i>
    <i name="e_wo_entrp">    -16.65908758 </i>
    <i name="e_0_energy">    -16.65908758 </i>
   </energy>
  </scstep>
  <scstep>
   <time name="dav">    0.22    0.22</time>
   <time name="total">    0.27    0.27</time>
   <energy>
    <i name="e_fr_energy">    -16.65921356 </i>
    <i name="e_wo_entrp">    -16.65921356 </i>
    <i name="e_0_energy">    -16.65921356 </i>
   </energy>
  </scstep>
  <scstep>
   <time name="dav">    0.22    0.23</time>
   <time name="total">    0.27    0.28</time>
   <energy>
    <i name="e_fr_energy">    -16.65924567 </i>
    <i name="e_wo_entrp">    -16.65924567 </i>
    <i name="e_0_energy">    -16.65924567 </i>
   </energy>
  </scstep>
  <scstep>
   <time name="dav">    0.21    0.21</time>
   <time name="total">    0.26    0.26</time>
   <energy>
    <i name="e_fr_energy">    -16.65927192 </i>
    <i name="e_wo_entrp">    -16.65927192 </i>
    <i name="e_0_energy">    -16.65927192 </i>
   </energy>
  </scstep>
  <scstep>
   <time name="dav">    0.21    0.21</time>
   <time name="total">    0.26    0.26</time>
   <energy>
    <i name="e_fr_energy">    -16.65928128 </i>
    <i name="e_wo_entrp">    -16.65928128 </i>
    <i name="e_0_energy">    -16.65928128 </i>
   </energy>
  </scstep>
  <scstep>
   <time name="dav">    0.20    0.20</time>
   <time name="total">    0.25    0.25</time>
   <energy>
    <i name="e_fr_energy">    -16.65930038 </i>
    <i name="e_wo_entrp">    -16.65930038 </i>
    <i name="e_0_energy">    -16.65930038 </i>
   </energy>
  </scstep>
  <scstep>
   <time name="dav">    0.21    0.21</time>
   <time name="total">    0.26    0.28</time>
   <energy>
    <i name="e_fr_energy">    -16.65930856 </i>
    <i name="e_wo_entrp">    -16.65930856 </i>
    <i name="e_0_energy">    -16.65930856 </i>
   </energy>
  </scstep>
  <scstep>
   <time name="dav">    0.20    0.20</time>
   <time name="total">    0.25    0.25</time>
   <energy>
    <i name="e_fr_energy">    -16.65931428 </i>
    <i name="e_wo_entrp">    -16.65931428 </i>
    <i name="e_0_energy">    -16.65931428 </i>
   </energy>
  </scstep>
  <scstep>
   <time name="dav">    0.22    0.22</time>
   <time name="total">    0.27    0.27</time>
   <energy>
    <i name="e_fr_energy">    -16.65931564 </i>
    <i name="e_wo_entrp">    -16.65931564 </i>
    <i name="e_0_energy">    -16.65931564 </i>
   </energy>
  </scstep>
  <scstep>
   <time name="dav">    0.18    0.18</time>
   <time name="total">    0.20    0.20</time>
   <energy>
    <i name="alphaZ">     26.16214405 </i>
    <i name="ewald">   4893.86146600 </i>
    <i name="hartreedc">  -9252.97144121 </i>
    <i name="XCdc">    128.99832937 </i>
    <i name="pawpsdc">   4939.76868520 </i>
    <i name="pawaedc">  -5769.52306526 </i>
    <i name="eentropy">     -0.00000000 </i>
    <i name="bandstr">   -675.48247538 </i>
    <i name="atom">   5692.52704122 </i>
    <i name="e_fr_energy">    -16.65931601 </i>
    <i name="e_wo_entrp">    -16.65931601 </i>
    <i name="e_0_energy">    -16.65931601 </i>
   </energy>
  </scstep>
  <structure>
   <crystal>
    <varray name="basis" >
     <v>       4.52643013       0.00000000       0.00000000 </v>
     <v>       0.00000000       4.03236008       0.00000000 </v>
     <v>       0.00000000       0.00000000      20.00000000 </v>
    </varray>
    <i name="volume">    365.04392294 </i>
    <varray name="rec_basis" >
     <v>       0.22092465       0.00000000       0.00000000 </v>
     <v>       0.00000000       0.24799373       0.00000000 </v>
     <v>       0.00000000       0.00000000       0.05000000 </v>
    </varray>
   </crystal>
   <varray name="positions" >
    <v>       0.04325900       0.70722300       0.56568599 </v>
    <v>       0.61468399       0.20708699       0.44114801 </v>
    <v>       0.17888799       0.70709199       0.42961600 </v>
    <v>       0.68732601       0.20717201       0.56091303 </v>
   </varray>
  </structure>
  <varray name="forces" >
   <v>      -0.19699453      -0.00028515      -0.16861327 </v>
   <v>      -0.02047514       0.00036896       0.22841161 </v>
   <v>       0.04165833       0.00026822       0.12053742 </v>
   <v>       0.17581134      -0.00035203      -0.18033577 </v>
  </varray>
  <varray name="stress" >
   <v>      -4.30145398      -0.00096430      -0.34616577 </v>
   <v>      -0.00096426      -4.53133618      -0.00674284 </v>
   <v>      -0.34616574      -0.00674290      -4.23764374 </v>
  </varray>
  <energy>
   <i name="e_fr_energy">    -16.65931601 </i>
   <i name="e_wo_entrp">    -16.65931601 </i>
   <i name="e_0_energy">     -0.00000000 </i>
  </energy>
  <time name="totalsc">    6.77    6.97</time>
 </calculation>
 <calculation>
  <scstep>
   <time name="dav">    0.26    0.26</time>
   <time name="total">    0.31    0.35</time>
   <energy>
    <i name="alphaZ">     27.12478729 </i>
    <i name="ewald">   4986.57533763 </i>
    <i name="hartreedc">  -9397.49485861 </i>
    <i name="XCdc">    131.04613297 </i>
    <i name="pawpsdc">   4939.76798109 </i>
    <i name="pawaedc">  -5769.52236956 </i>
    <i name="eentropy">     -0.00000000 </i>
    <i name="bandstr">   -627.12383539 </i>
    <i name="atom">   5692.52704122 </i>
    <i name="e_fr_energy">    -17.09978336 </i>
    <i name="e_wo_entrp">    -17.09978336 </i>
    <i name="e_0_energy">    -17.09978336 </i>
   </energy>
  </scstep>
  <scstep>
   <time name="dav">    0.25    0.25</time>
   <time name="total">    0.30    0.30</time>
   <energy>
    <i name="e_fr_energy">    -16.78043783 </i>
    <i name="e_wo_entrp">    -16.78043783 </i>
    <i name="e_0_energy">    -16.78043783 </i>
   </energy>
  </scstep>
  <scstep>
   <time name="dav">    0.29    0.29</time>
   <time name="total">    0.34    0.34</time>
   <energy>
    <i name="e_fr_energy">    -16.68667087 </i>
    <i name="e_wo_entrp">    -16.68667087 </i>
    <i name="e_0_energy">    -16.68667087 </i>
   </energy>
  </scstep>
  <scstep>
   <time name="dav">    0.31    0.31</time>
   <time name="total">    0.35    0.36</time>
   <energy>
    <i name="e_fr_energy">    -16.67713009 </i>
    <i name="e_wo_entrp">    -16.67713009 </i>
    <i name="e_0_energy">    -16.67713009 </i>
   </energy>
  </scstep>
  <scstep>
   <time name="dav">    0.26    0.26</time>
   <time name="total">    0.30    0.31</time>
   <energy>
    <i name="e_fr_energy">    -16.67527186 </i>
    <i name="e_wo_entrp">    -16.67527186 </i>
    <i name="e_0_energy">    -16.67527186 </i>
   </energy>
  </scstep>
  <scstep>
   <time name="dav">    0.26    0.26</time>
   <time name="total">    0.31    0.31</time>
   <energy>
    <i name="e_fr_energy">    -16.67539653 </i>
    <i name="e_wo_entrp">    -16.67539653 </i>
    <i name="e_0_energy">    -16.67539653 </i>
   </energy>
  </scstep>
  <scstep>
   <time name="dav">    0.28    0.29</time>
   <time name="total">    0.33    0.34</time>
   <energy>
    <i name="e_fr_energy">    -16.67557881 </i>
    <i name="e_wo_entrp">    -16.67557881 </i>
    <i name="e_0_energy">    -16.67557881 </i>
   </energy>
  </scstep>
  <scstep>
   <time name="dav">    0.21    0.21</time>
   <time name="total">    0.26    0.26</time>
   <energy>
    <i name="e_fr_energy">    -16.67578348 </i>
    <i name="e_wo_entrp">    -16.67578348 </i>
    <i name="e_0_energy">    -16.67578348 </i>
   </energy>
  </scstep>
  <scstep>
   <time name="dav">    0.22    0.22</time>
   <time name="total">    0.27    0.27</time>
   <energy>
    <i name="e_fr_energy">    -16.67591558 </i>
    <i name="e_wo_entrp">    -16.67591558 </i>
    <i name="e_0_energy">    -16.67591558 </i>
   </energy>
  </scstep>
  <scstep>
   <time name="dav">    0.22    0.22</time>
   <time name="total">    0.27    0.27</time>
   <energy>
    <i name="e_fr_energy">    -16.67601879 </i>
    <i name="e_wo_entrp">    -16.67601879 </i>
    <i name="e_0_energy">    -16.67601879 </i>
   </energy>
  </scstep>
  <scstep>
   <time name="dav">    0.22    0.22</time>
   <time name="total">    0.27    0.27</time>
   <energy>
    <i name="e_fr_energy">    -16.67613470 </i>
    <i name="e_wo_entrp">    -16.67613470 </i>
    <i name="e_0_energy">    -16.67613470 </i>
   </energy>
  </scstep>
  <scstep>
   <time name="dav">    0.23    0.23</time>
   <time name="total">    0.28    0.28</time>
   <energy>
    <i name="e_fr_energy">    -16.67615128 </i>
    <i name="e_wo_entrp">    -16.67615128 </i>
    <i name="e_0_energy">    -16.67615128 </i>
   </energy>
  </scstep>
  <scstep>
   <time name="dav">    0.21    0.21</time>
   <time name="total">    0.26    0.26</time>
   <energy>
    <i name="e_fr_energy">    -16.67615435 </i>
    <i name="e_wo_entrp">    -16.67615435 </i>
    <i name="e_0_energy">    -16.67615435 </i>
   </energy>
  </scstep>
  <scstep>
   <time name="dav">    0.21    0.21</time>
   <time name="total">    0.26    0.26</time>
   <energy>
    <i name="e_fr_energy">    -16.67615699 </i>
    <i name="e_wo_entrp">    -16.67615699 </i>
    <i name="e_0_energy">    -16.67615699 </i>
   </energy>
  </scstep>
  <scstep>
   <time name="dav">    0.21    0.21</time>
   <time name="total">    0.23    0.23</time>
   <energy>
    <i name="alphaZ">     27.12478729 </i>
    <i name="ewald">   4986.57533763 </i>
    <i name="hartreedc">  -9349.63973298 </i>
    <i name="XCdc">    129.33198685 </i>
    <i name="pawpsdc">   5052.40813865 </i>
    <i name="pawaedc">  -5882.65056233 </i>
    <i name="eentropy">     -0.00000000 </i>
    <i name="bandstr">   -672.35315382 </i>
    <i name="atom">   5692.52704122 </i>
    <i name="e_fr_energy">    -16.67615748 </i>
    <i name="e_wo_entrp">    -16.67615748 </i>
    <i name="e_0_energy">    -16.67615748 </i>
   </energy>
  </scstep>
  <structure>
   <crystal>
    <varray name="basis" >
     <v>       4.47292729      -0.00001199      -0.00430572 </v>
     <v>      -0.00001068       3.98214995      -0.00007472 </v>
     <v>      -0.01902479      -0.00037058      19.76710499 </v>
    </varray>
    <i name="volume">    352.08872219 </i>
    <varray name="rec_basis" >
     <v>       0.22356745       0.00000060       0.00021517 </v>
     <v>       0.00000068       0.25112063       0.00000471 </v>
     <v>       0.00004870       0.00000095       0.05058914 </v>
    </varray>
   </crystal>
   <varray name="positions" >
    <v>       0.04115943       0.70721959       0.56527927 </v>
    <v>       0.61446576       0.20709141       0.44169897 </v>
    <v>       0.17933199       0.70709520       0.42990676 </v>
    <v>       0.68919981       0.20716779       0.56047803 </v>
   </varray>
  </structure>
  <varray name="forces" >
   <v>       0.00956984      -0.00035050       0.09287064 </v>
   <v>       0.06054052       0.00036457      -0.05937745 </v>
   <v>      -0.05560269       0.00004419      -0.13352858 </v>
   <v>      -0.01450767      -0.00005825       0.10003539 </v>
  </varray>
  <varray name="stress" >
   <v>       0.91835410      -0.00064112       0.00368980 </v>
   <v>      -0.00064118       0.99863136      -0.00434989 </v>
   <v>       0.00368982      -0.00434987       1.78305150 </v>
  </varray>
  <energy>
   <i name="e_fr_energy">    -16.67615748 </i>
   <i name="e_wo_entrp">    -16.67615748 </i>
   <i name="e_0_energy">     -0.00000000 </i>
  </energy>
  <time name="totalsc">    4.82    5.02</time>
 </calculation>
 <calculation>
  <scstep>
   <time name="dav">    0.28    0.28</time>
   <time name="total">    0.33    0.37</time>
   <energy>
    <i name="alphaZ">     26.91634195 </i>
    <i name="ewald">   4966.59671421 </i>
    <i name="hartreedc">  -9318.67103445 </i>
    <i name="XCdc">    128.89682269 </i>
    <i name="pawpsdc">   5052.43294953 </i>
    <i name="pawaedc">  -5882.67564467 </i>
    <i name="eentropy">     -0.00000000 </i>
    <i name="bandstr">   -682.71967510 </i>
    <i name="atom">   5692.52704122 </i>
    <i name="e_fr_energy">    -16.69648462 </i>
    <i name="e_wo_entrp">    -16.69648462 </i>
    <i name="e_0_energy">    -16.69648462 </i>
   </energy>
  </scstep>
  <scstep>
   <time name="dav">    0.25    0.25</time>
   <time name="total">    0.30    0.30</time>
   <energy>
    <i name="e_fr_energy">    -16.68232250 </i>
    <i name="e_wo_entrp">    -16.68232250 </i>
    <i name="e_0_energy">    -16.68232250 </i>
   </energy>
  </scstep>
  <scstep>
   <time name="dav">    0.29    0.30</time>
   <time name="total">    0.34    0.34</time>
   <energy>
    <i name="e_fr_energy">    -16.67801967 </i>
    <i name="e_wo_entrp">    -16.67801967 </i>
    <i name="e_0_energy">    -16.67801967 </i>
   </energy>
  </scstep>
  <scstep>
   <time name="dav">    0.31    0.31</time>
   <time name="total">    0.35    0.36</time>
   <energy>
    <i name="e_fr_energy">    -16.67759066 </i>
    <i name="e_wo_entrp">    -16.67759066 </i>
    <i name="e_0_energy">    -16.67759066 </i>
   </energy>
  </scstep>
  <scstep>
   <time name="dav">    0.26    0.26</time>
   <time name="total">    0.31    0.31</time>
   <energy>
    <i name="e_fr_energy">    -16.67749841 </i>
    <i name="e_wo_entrp">    -16.67749841 </i>
    <i name="e_0_energy">    -16.67749841 </i>
   </energy>
  </scstep>
  <scstep>
   <time name="dav">    0.29    0.29</time>
   <time name="total">    0.34    0.34</time>
   <energy>
    <i name="e_fr_energy">    -16.67749363 </i>
    <i name="e_wo_entrp">    -16.67749363 </i>
    <i name="e_0_energy">    -16.67749363 </i>
   </energy>
  </scstep>
  <scstep>
   <time name="dav">    0.21    0.22</time>
   <time name="total">    0.26    0.26</time>
   <energy>
    <i name="e_fr_energy">    -16.67749910 </i>
    <i name="e_wo_entrp">    -16.67749910 </i>
    <i name="e_0_energy">    -16.67749910 </i>
   </energy>
  </scstep>
  <scstep>
   <time name="dav">    0.19    0.20</time>
   <time name="total">    0.24    0.24</time>
   <energy>
    <i name="e_fr_energy">    -16.67750965 </i>
    <i name="e_wo_entrp">    -16.67750965 </i>
    <i name="e_0_energy">    -16.67750965 </i>
   </energy>
  </scstep>
  <scstep>
   <time name="dav">    0.20    0.20</time>
   <time name="total">    0.25    0.25</time>
   <energy>
    <i name="e_fr_energy">    -16.67751935 </i>
    <i name="e_wo_entrp">    -16.67751935 </i>
    <i name="e_0_energy">    -16.67751935 </i>
   </energy>
  </scstep>
  <scstep>
   <time name="dav">    0.19    0.19</time>
   <time name="total">    0.24    0.24</time>
   <energy>
    <i name="e_fr_energy">    -16.67753076 </i>
    <i name="e_wo_entrp">    -16.67753076 </i>
    <i name="e_0_energy">    -16.67753076 </i>
   </energy>
  </scstep>
  <scstep>
   <time name="dav">    0.20    0.20</time>
   <time name="total">    0.25    0.25</time>
   <energy>
    <i name="e_fr_energy">    -16.67753807 </i>
    <i name="e_wo_entrp">    -16.67753807 </i>
    <i name="e_0_energy">    -16.67753807 </i>
   </energy>
  </scstep>
  <scstep>
   <time name="dav">    0.20    0.20</time>
   <time name="total">    0.25    0.25</time>
   <energy>
    <i name="e_fr_energy">    -16.67754005 </i>
    <i name="e_wo_entrp">    -16.67754005 </i>
    <i name="e_0_energy">    -16.67754005 </i>
   </energy>
  </scstep>
  <scstep>
   <time name="dav">    0.20    0.20</time>
   <time name="total">    0.22    0.22</time>
   <energy>
    <i name="alphaZ">     26.91634195 </i>
    <i name="ewald">   4966.59671421 </i>
    <i name="hartreedc">  -9328.81282250 </i>
    <i name="XCdc">    129.25963014 </i>
    <i name="pawpsdc">   5027.35164707 </i>
    <i name="pawaedc">  -5857.48508609 </i>
    <i name="eentropy">     -0.00000000 </i>
    <i name="bandstr">   -673.03100667 </i>
    <i name="atom">   5692.52704122 </i>
    <i name="e_fr_energy">    -16.67754067 </i>
    <i name="e_wo_entrp">    -16.67754067 </i>
    <i name="e_0_energy">    -16.67754067 </i>
   </energy>
  </scstep>
  <structure>
   <crystal>
    <varray name="basis" >
     <v>       4.48429531      -0.00000945      -0.00339086 </v>
     <v>      -0.00000841       3.99281835      -0.00005884 </v>
     <v>      -0.01498250      -0.00029184      19.81658936 </v>
    </varray>
    <i name="volume">    354.81536506 </i>
    <varray name="rec_basis" >
     <v>       0.22300061       0.00000047       0.00016860 </v>
     <v>       0.00000053       0.25044966       0.00000369 </v>
     <v>       0.00003816       0.00000074       0.05046280 </v>
    </varray>
   </crystal>
   <varray name="positions" >
    <v>       0.04161125       0.70722033       0.56536680 </v>
    <v>       0.61451218       0.20709045       0.44158054 </v>
    <v>       0.17923626       0.70709450       0.42984423 </v>
    <v>       0.68879731       0.20716871       0.56057146 </v>
   </varray>
  </structure>
  <varray name="forces" >
   <v>      -0.03656532      -0.00035500       0.03414354 </v>
   <v>       0.04330130       0.00041380       0.00619487 </v>
   <v>      -0.03429988       0.00008183      -0.07622749 </v>
   <v>       0.02756390      -0.00014063       0.03588908 </v>
  </varray>
  <varray name="stress" >
   <v>      -0.26875768      -0.00078615      -0.07908365 </v>
   <v>      -0.00078612      -0.26640046      -0.00503672 </v>
   <v>      -0.07908364      -0.00503665       0.39460241 </v>
  </varray>
  <energy>
   <i name="e_fr_energy">    -16.67754067 </i>
   <i name="e_wo_entrp">    -16.67754067 </i>
   <i name="e_0_energy">     -0.00000000 </i>
  </energy>
  <time name="totalsc">    4.15    4.36</time>
 </calculation>
 <calculation>
  <scstep>
   <time name="dav">    0.25    0.25</time>
   <time name="total">    0.30    0.33</time>
   <energy>
    <i name="alphaZ">     26.94387384 </i>
    <i name="ewald">   4983.15558620 </i>
    <i name="hartreedc">  -9346.16544098 </i>
    <i name="XCdc">    129.30921671 </i>
    <i name="pawpsdc">   5027.36113797 </i>
    <i name="pawaedc">  -5857.49447014 </i>
    <i name="eentropy">     -0.00000000 </i>
    <i name="bandstr">   -672.31592016 </i>
    <i name="atom">   5692.52704122 </i>
    <i name="e_fr_energy">    -16.67897535 </i>
    <i name="e_wo_entrp">    -16.67897535 </i>
    <i name="e_0_energy">    -16.67897535 </i>
   </energy>
  </scstep>
  <scstep>
   <time name="dav">    0.27    0.27</time>
   <time name="total">    0.32    0.32</time>
   <energy>
    <i name="e_fr_energy">    -16.67848086 </i>
    <i name="e_wo_entrp">    -16.67848086 </i>
    <i name="e_0_energy">    -16.67848086 </i>
   </energy>
  </scstep>
  <scstep>
   <time name="dav">    0.28    0.29</time>
   <time name="total">    0.33    0.33</time>
   <energy>
    <i name="e_fr_energy">    -16.67817605 </i>
    <i name="e_wo_entrp">    -16.67817605 </i>
    <i name="e_0_energy">    -16.67817605 </i>
   </energy>
  </scstep>
  <scstep>
   <time name="dav">    0.29    0.29</time>
   <time name="total">    0.34    0.34</time>
   <energy>
    <i name="e_fr_energy">    -16.67811796 </i>
    <i name="e_wo_entrp">    -16.67811796 </i>
    <i name="e_0_energy">    -16.67811796 </i>
   </energy>
  </scstep>
  <scstep>
   <time name="dav">    0.25    0.26</time>
   <time name="total">    0.30    0.31</time>
   <energy>
    <i name="e_fr_energy">    -16.67811930 </i>
    <i name="e_wo_entrp">    -16.67811930 </i>
    <i name="e_0_energy">    -16.67811930 </i>
   </energy>
  </scstep>
  <scstep>
   <time name="dav">    0.23    0.23</time>
   <time name="total">    0.25    0.26</time>
   <energy>
    <i name="alphaZ">     26.94387384 </i>
    <i name="ewald">   4983.15558620 </i>
    <i name="hartreedc">  -9345.42001605 </i>
    <i name="XCdc">    129.26248786 </i>
    <i name="pawpsdc">   5028.09601669 </i>
    <i name="pawaedc">  -5858.22210406 </i>
    <i name="eentropy">     -0.00000000 </i>
    <i name="bandstr">   -673.02100511 </i>
    <i name="atom">   5692.52704122 </i>
    <i name="e_fr_energy">    -16.67811942 </i>
    <i name="e_wo_entrp">    -16.67811942 </i>
    <i name="e_0_energy">    -16.67811942 </i>
   </energy>
  </scstep>
  <structure>
   <crystal>
    <varray name="basis" >
     <v>       4.48023735      -0.00001863      -0.00437910 </v>
     <v>      -0.00001662       3.98918208      -0.00011168 </v>
     <v>      -0.01932414      -0.00055356      19.83233964 </v>
    </varray>
    <i name="volume">    354.45280632 </i>
    <varray name="rec_basis" >
     <v>       0.22320267       0.00000094       0.00021748 </v>
     <v>       0.00000105       0.25067795       0.00000700 </v>
     <v>       0.00004928       0.00000141       0.05042274 </v>
    </varray>
   </crystal>
   <varray name="positions" >
    <v>       0.04119578       0.70721616       0.56543876 </v>
    <v>       0.61495425       0.20709532       0.44160530 </v>
    <v>       0.17889061       0.70709549       0.42967189 </v>
    <v>       0.68911634       0.20716701       0.56064708 </v>
   </varray>
  </structure>
  <varray name="forces" >
   <v>      -0.01045922      -0.00030748       0.00968883 </v>
   <v>       0.03481447       0.00033830       0.01567240 </v>
   <v>      -0.03015931       0.00001427      -0.04879042 </v>
   <v>       0.00580406      -0.00004508       0.02342919 </v>
  </varray>
  <varray name="stress" >
   <v>       0.06991255      -0.00012753      -0.03213895 </v>
   <v>      -0.00012752       0.14151348      -0.00344654 </v>
   <v>      -0.03213890      -0.00344653       0.13802117 </v>
  </varray>
  <energy>
   <i name="e_fr_energy">    -16.67811942 </i>
   <i name="e_wo_entrp">    -16.67811942 </i>
   <i name="e_0_energy">     -0.00000000 </i>
  </energy>
  <time name="totalsc">    2.32    2.50</time>
 </calculation>
 <calculation>
  <scstep>
   <time name="dav">    0.25    0.25</time>
   <time name="total">    0.30    0.33</time>
   <energy>
    <i name="alphaZ">     26.96361733 </i>
    <i name="ewald">   4995.02808268 </i>
    <i name="hartreedc">  -9357.91565504 </i>
    <i name="XCdc">    129.29855729 </i>
    <i name="pawpsdc">   5027.61883532 </i>
    <i name="pawaedc">  -5857.75162969 </i>
    <i name="eentropy">     -0.00000000 </i>
    <i name="bandstr">   -672.44757288 </i>
    <i name="atom">   5692.52704122 </i>
    <i name="e_fr_energy">    -16.67872378 </i>
    <i name="e_wo_entrp">    -16.67872378 </i>
    <i name="e_0_energy">    -16.67872378 </i>
   </energy>
  </scstep>
  <scstep>
   <time name="dav">    0.28    0.28</time>
   <time name="total">    0.32    0.33</time>
   <energy>
    <i name="e_fr_energy">    -16.67846794 </i>
    <i name="e_wo_entrp">    -16.67846794 </i>
    <i name="e_0_energy">    -16.67846794 </i>
   </energy>
  </scstep>
  <scstep>
   <time name="dav">    0.28    0.28</time>
   <time name="total">    0.33    0.33</time>
   <energy>
    <i name="e_fr_energy">    -16.67830895 </i>
    <i name="e_wo_entrp">    -16.67830895 </i>
    <i name="e_0_energy">    -16.67830895 </i>
   </energy>
  </scstep>
  <scstep>
   <time name="dav">    0.30    0.30</time>
   <time name="total">    0.35    0.35</time>
   <energy>
    <i name="e_fr_energy">    -16.67827964 </i>
    <i name="e_wo_entrp">    -16.67827964 </i>
    <i name="e_0_energy">    -16.67827964 </i>
   </energy>
  </scstep>
  <scstep>
   <time name="dav">    0.26    0.26</time>
   <time name="total">    0.30    0.31</time>
   <energy>
    <i name="e_fr_energy">    -16.67828131 </i>
    <i name="e_wo_entrp">    -16.67828131 </i>
    <i name="e_0_energy">    -16.67828131 </i>
   </energy>
  </scstep>
  <scstep>
   <time name="dav">    0.22    0.22</time>
   <time name="total">    0.27    0.27</time>
   <energy>
    <i name="e_fr_energy">    -16.67828252 </i>
    <i name="e_wo_entrp">    -16.67828252 </i>
    <i name="e_0_energy">    -16.67828252 </i>
   </energy>
  </scstep>
  <scstep>
   <time name="dav">    0.19    0.19</time>
   <time name="total">    0.24    0.24</time>
   <energy>
    <i name="e_fr_energy">    -16.67828557 </i>
    <i name="e_wo_entrp">    -16.67828557 </i>
    <i name="e_0_energy">    -16.67828557 </i>
   </energy>
  </scstep>
  <scstep>
   <time name="dav">    0.21    0.21</time>
   <time name="total">    0.25    0.26</time>
   <energy>
    <i name="e_fr_energy">    -16.67828757 </i>
    <i name="e_wo_entrp">    -16.67828757 </i>
    <i name="e_0_energy">    -16.67828757 </i>
   </energy>
  </scstep>
  <scstep>
   <time name="dav">    0.20    0.20</time>
   <time name="total">    0.24    0.25</time>
   <energy>
    <i name="e_fr_energy">    -16.67829121 </i>
    <i name="e_wo_entrp">    -16.67829121 </i>
    <i name="e_0_energy">    -16.67829121 </i>
   </energy>
  </scstep>
  <scstep>
   <time name="dav">    0.21    0.21</time>
   <time name="total">    0.26    0.26</time>
   <energy>
    <i name="e_fr_energy">    -16.67829341 </i>
    <i name="e_wo_entrp">    -16.67829341 </i>
    <i name="e_0_energy">    -16.67829341 </i>
   </energy>
  </scstep>
  <scstep>
   <time name="dav">    0.19    0.19</time>
   <time name="total">    0.24    0.24</time>
   <energy>
    <i name="e_fr_energy">    -16.67829458 </i>
    <i name="e_wo_entrp">    -16.67829458 </i>
    <i name="e_0_energy">    -16.67829458 </i>
   </energy>
  </scstep>
  <scstep>
   <time name="dav">    0.19    0.20</time>
   <time name="total">    0.22    0.22</time>
   <energy>
    <i name="alphaZ">     26.96361733 </i>
    <i name="ewald">   4995.02808268 </i>
    <i name="hartreedc">  -9357.60230360 </i>
    <i name="XCdc">    129.26655350 </i>
    <i name="pawpsdc">   5027.71681378 </i>
    <i name="pawaedc">  -5857.84732223 </i>
    <i name="eentropy">     -0.00000000 </i>
    <i name="bandstr">   -672.73077758 </i>
    <i name="atom">   5692.52704122 </i>
    <i name="e_fr_energy">    -16.67829491 </i>
    <i name="e_wo_entrp">    -16.67829491 </i>
    <i name="e_0_energy">    -16.67829491 </i>
   </energy>
  </scstep>
  <structure>
   <crystal>
    <varray name="basis" >
     <v>       4.47733568      -0.00002519      -0.00508574 </v>
     <v>      -0.00002248       3.98658194      -0.00014946 </v>
     <v>      -0.02242867      -0.00074071      19.84360200 </v>
    </varray>
    <i name="volume">    354.19326642 </i>
    <varray name="rec_basis" >
     <v>       0.22334740       0.00000127       0.00025244 </v>
     <v>       0.00000142       0.25084145       0.00000936 </v>
     <v>       0.00005724       0.00000189       0.05039414 </v>
    </varray>
   </crystal>
   <varray name="positions" >
    <v>       0.04089849       0.70721318       0.56549016 </v>
    <v>       0.61527066       0.20709881       0.44162300 </v>
    <v>       0.17864312       0.70709619       0.42954874 </v>
    <v>       0.68934473       0.20716580       0.56070113 </v>
   </varray>
  </structure>
  <varray name="forces" >
   <v>       0.00758036      -0.00027034      -0.00757750 </v>
   <v>       0.02965140       0.00029089       0.02239263 </v>
   <v>      -0.02726898      -0.00004292      -0.02992707 </v>
   <v>      -0.00996277       0.00002237       0.01511195 </v>
  </varray>
  <varray name="stress" >
   <v>       0.06709267       0.00022295      -0.00061121 </v>
   <v>       0.00022295       0.19504620      -0.00244409 </v>
   <v>      -0.00061126      -0.00244413      -0.33918738 </v>
  </varray>
  <energy>
   <i name="e_fr_energy">    -16.67829491 </i>
   <i name="e_wo_entrp">    -16.67829491 </i>
   <i name="e_0_energy">     -0.00000000 </i>
  </energy>
  <time name="totalsc">    3.79    3.97</time>
 </calculation>
 <calculation>
  <scstep>
   <time name="dav">    0.26    0.26</time>
   <time name="total">    0.30    0.34</time>
   <energy>
    <i name="alphaZ">     26.96995685 </i>
    <i name="ewald">   4998.84003207 </i>
    <i name="hartreedc">  -9361.59868272 </i>
    <i name="XCdc">    129.27798081 </i>
    <i name="pawpsdc">   5027.72037757 </i>
    <i name="pawaedc">  -5857.85095205 </i>
    <i name="eentropy">     -0.00000000 </i>
    <i name="bandstr">   -672.56410197 </i>
    <i name="atom">   5692.52704122 </i>
    <i name="e_fr_energy">    -16.67834823 </i>
    <i name="e_wo_entrp">    -16.67834823 </i>
    <i name="e_0_energy">    -16.67834823 </i>
   </energy>
  </scstep>
  <scstep>
   <time name="dav">    0.27    0.28</time>
   <time name="total">    0.32    0.32</time>
   <energy>
    <i name="e_fr_energy">    -16.67832062 </i>
    <i name="e_wo_entrp">    -16.67832062 </i>
    <i name="e_0_energy">    -16.67832062 </i>
   </energy>
  </scstep>
  <scstep>
   <time name="dav">    0.28    0.28</time>
   <time name="total">    0.33    0.33</time>
   <energy>
    <i name="e_fr_energy">    -16.67830461 </i>
    <i name="e_wo_entrp">    -16.67830461 </i>
    <i name="e_0_energy">    -16.67830461 </i>
   </energy>
  </scstep>
  <scstep>
   <time name="dav">    0.28    0.29</time>
   <time name="total">    0.33    0.33</time>
   <energy>
    <i name="e_fr_energy">    -16.67830188 </i>
    <i name="e_wo_entrp">    -16.67830188 </i>
    <i name="e_0_energy">    -16.67830188 </i>
   </energy>
  </scstep>
  <scstep>
   <time name="dav">    0.22    0.22</time>
   <time name="total">    0.24    0.24</time>
   <energy>
    <i name="alphaZ">     26.96995685 </i>
    <i name="ewald">   4998.84003207 </i>
    <i name="hartreedc">  -9361.42191583 </i>
    <i name="XCdc">    129.26729212 </i>
    <i name="pawpsdc">   5027.98949409 </i>
    <i name="pawaedc">  -5858.11799533 </i>
    <i name="eentropy">     -0.00000000 </i>
    <i name="bandstr">   -672.73220717 </i>
    <i name="atom">   5692.52704122 </i>
    <i name="e_fr_energy">    -16.67830199 </i>
    <i name="e_wo_entrp">    -16.67830199 </i>
    <i name="e_0_energy">    -16.67830199 </i>
   </energy>
  </scstep>
  <structure>
   <crystal>
    <varray name="basis" >
     <v>       4.47640544      -0.00002730      -0.00531228 </v>
     <v>      -0.00002436       3.98574837      -0.00016158 </v>
     <v>      -0.02342394      -0.00080071      19.84721257 </v>
    </varray>
    <i name="volume">    354.11001027 </i>
    <varray name="rec_basis" >
     <v>       0.22339384       0.00000138       0.00026365 </v>
     <v>       0.00000154       0.25089391       0.00001012 </v>
     <v>       0.00005979       0.00000204       0.05038498 </v>
    </varray>
   </crystal>
   <varray name="positions" >
    <v>       0.04080313       0.70721223       0.56550662 </v>
    <v>       0.61537217       0.20709993       0.44162868 </v>
    <v>       0.17856369       0.70709642       0.42950928 </v>
    <v>       0.68941801       0.20716541       0.56071845 </v>
   </varray>
  </structure>
  <varray name="forces" >
   <v>       0.01373749      -0.00025538      -0.01303654 </v>
   <v>       0.02750798       0.00027017       0.02462435 </v>
   <v>      -0.02621729      -0.00005987      -0.02385459 </v>
   <v>      -0.01502819       0.00004508       0.01226677 </v>
  </varray>
  <varray name="stress" >
   <v>       0.14136874       0.00039366       0.01019086 </v>
   <v>       0.00039369       0.28662682      -0.00206120 </v>
   <v>       0.01019095      -0.00206133      -0.39763748 </v>
  </varray>
  <energy>
   <i name="e_fr_energy">    -16.67830199 </i>
   <i name="e_wo_entrp">    -16.67830199 </i>
   <i name="e_0_energy">     -0.00000000 </i>
  </energy>
  <time name="totalsc">    1.99    2.22</time>
 </calculation>
 <calculation>
  <scstep>
   <time name="dav">    0.23    0.23</time>
   <time name="total">    0.28    0.31</time>
   <energy>
    <i name="alphaZ">     26.98025373 </i>
    <i name="ewald">   4987.53655327 </i>
    <i name="hartreedc">  -9351.19625647 </i>
    <i name="XCdc">    129.28225840 </i>
    <i name="pawpsdc">   5027.92054068 </i>
    <i name="pawaedc">  -5858.04993804 </i>
    <i name="eentropy">     -0.00000000 </i>
    <i name="bandstr">   -671.67924190 </i>
    <i name="atom">   5692.52704122 </i>
    <i name="e_fr_energy">    -16.67878910 </i>
    <i name="e_wo_entrp">    -16.67878910 </i>
    <i name="e_0_energy">    -16.67878910 </i>
   </energy>
  </scstep>
  <scstep>
   <time name="dav">    0.28    0.28</time>
   <time name="total">    0.32    0.33</time>
   <energy>
    <i name="e_fr_energy">    -16.67870151 </i>
    <i name="e_wo_entrp">    -16.67870151 </i>
    <i name="e_0_energy">    -16.67870151 </i>
   </energy>
  </scstep>
  <scstep>
   <time name="dav">    0.30    0.30</time>
   <time name="total">    0.35    0.35</time>
   <energy>
    <i name="e_fr_energy">    -16.67860578 </i>
    <i name="e_wo_entrp">    -16.67860578 </i>
    <i name="e_0_energy">    -16.67860578 </i>
   </energy>
  </scstep>
  <scstep>
   <time name="dav">    0.30    0.30</time>
   <time name="total">    0.34    0.35</time>
   <energy>
    <i name="e_fr_energy">    -16.67857498 </i>
    <i name="e_wo_entrp">    -16.67857498 </i>
    <i name="e_0_energy">    -16.67857498 </i>
   </energy>
  </scstep>
  <scstep>
   <time name="dav">    0.27    0.27</time>
   <time name="total">    0.31    0.32</time>
   <energy>
    <i name="e_fr_energy">    -16.67857516 </i>
    <i name="e_wo_entrp">    -16.67857516 </i>
    <i name="e_0_energy">    -16.67857516 </i>
   </energy>
  </scstep>
  <scstep>
   <time name="dav">    0.21    0.21</time>
   <time name="total">    0.26    0.26</time>
   <energy>
    <i name="e_fr_energy">    -16.67857676 </i>
    <i name="e_wo_entrp">    -16.67857676 </i>
    <i name="e_0_energy">    -16.67857676 </i>
   </energy>
  </scstep>
  <scstep>
   <time name="dav">    0.19    0.19</time>
   <time name="total">    0.24    0.24</time>
   <energy>
    <i name="e_fr_energy">    -16.67858020 </i>
    <i name="e_wo_entrp">    -16.67858020 </i>
    <i name="e_0_energy">    -16.67858020 </i>
   </energy>
  </scstep>
  <scstep>
   <time name="dav">    0.20    0.20</time>
   <time name="total">    0.25    0.25</time>
   <energy>
    <i name="e_fr_energy">    -16.67858429 </i>
    <i name="e_wo_entrp">    -16.67858429 </i>
    <i name="e_0_energy">    -16.67858429 </i>
   </energy>
  </scstep>
  <scstep>
   <time name="dav">    0.19    0.19</time>
   <time name="total">    0.24    0.24</time>
   <energy>
    <i name="e_fr_energy">    -16.67859009 </i>
    <i name="e_wo_entrp">    -16.67859009 </i>
    <i name="e_0_energy">    -16.67859009 </i>
   </energy>
  </scstep>
  <scstep>
   <time name="dav">    0.21    0.21</time>
   <time name="total">    0.26    0.26</time>
   <energy>
    <i name="e_fr_energy">    -16.67859147 </i>
    <i name="e_wo_entrp">    -16.67859147 </i>
    <i name="e_0_energy">    -16.67859147 </i>
   </energy>
  </scstep>
  <scstep>
   <time name="dav">    0.19    0.19</time>
   <time name="total">    0.24    0.24</time>
   <energy>
    <i name="e_fr_energy">    -16.67859294 </i>
    <i name="e_wo_entrp">    -16.67859294 </i>
    <i name="e_0_energy">    -16.67859294 </i>
   </energy>
  </scstep>
  <scstep>
   <time name="dav">    0.20    0.21</time>
   <time name="total">    0.23    0.23</time>
   <energy>
    <i name="alphaZ">     26.98025373 </i>
    <i name="ewald">   4987.53655327 </i>
    <i name="hartreedc">  -9350.19242679 </i>
    <i name="XCdc">    129.26379969 </i>
    <i name="pawpsdc">   5026.37345978 </i>
    <i name="pawaedc">  -5856.49654400 </i>
    <i name="eentropy">     -0.00000000 </i>
    <i name="bandstr">   -672.67073026 </i>
    <i name="atom">   5692.52704122 </i>
    <i name="e_fr_energy">    -16.67859335 </i>
    <i name="e_wo_entrp">    -16.67859335 </i>
    <i name="e_0_energy">    -16.67859335 </i>
   </energy>
  </scstep>
  <structure>
   <crystal>
    <varray name="basis" >
     <v>       4.47644786      -0.00002617      -0.00562547 </v>
     <v>      -0.00002339       3.98753223      -0.00021080 </v>
     <v>      -0.02483249      -0.00104687      19.83057804 </v>
    </varray>
    <i name="volume">    353.97486591 </i>
    <varray name="rec_basis" >
     <v>       0.22339176       0.00000133       0.00027974 </v>
     <v>       0.00000148       0.25078167       0.00001324 </v>
     <v>       0.00006337       0.00000267       0.05042725 </v>
    </varray>
   </crystal>
   <varray name="positions" >
    <v>       0.04077860       0.70720677       0.56550388 </v>
    <v>       0.61591530       0.20710593       0.44170839 </v>
    <v>       0.17808105       0.70709603       0.42936341 </v>
    <v>       0.68938204       0.20716525       0.56078736 </v>
   </varray>
  </structure>
  <varray name="forces" >
   <v>       0.01516030      -0.00018249      -0.01678140 </v>
   <v>       0.01104764       0.00016410       0.00851010 </v>
   <v>      -0.01122727      -0.00007794      -0.01669172 </v>
   <v>      -0.01498067       0.00009632       0.02496302 </v>
  </varray>
  <varray name="stress" >
   <v>      -0.07986708       0.00014058       0.01405646 </v>
   <v>       0.00014060       0.12393643      -0.00077051 </v>
   <v>       0.01405642      -0.00077054      -0.35354307 </v>
  </varray>
  <energy>
   <i name="e_fr_energy">    -16.67859335 </i>
   <i name="e_wo_entrp">    -16.67859335 </i>
   <i name="e_0_energy">     -0.00000000 </i>
  </energy>
  <time name="totalsc">    3.80    3.99</time>
 </calculation>
 <calculation>
  <scstep>
   <time name="dav">    0.23    0.23</time>
   <time name="total">    0.28    0.32</time>
   <energy>
    <i name="alphaZ">     26.99877813 </i>
    <i name="ewald">   4967.30739710 </i>
    <i name="hartreedc">  -9331.88005061 </i>
    <i name="XCdc">    129.29082615 </i>
    <i name="pawpsdc">   5026.37714534 </i>
    <i name="pawaedc">  -5856.50026225 </i>
    <i name="eentropy">     -0.00000000 </i>
    <i name="bandstr">   -670.80030589 </i>
    <i name="atom">   5692.52704122 </i>
    <i name="e_fr_energy">    -16.67943080 </i>
    <i name="e_wo_entrp">    -16.67943080 </i>
    <i name="e_0_energy">    -16.67943080 </i>
   </energy>
  </scstep>
  <scstep>
   <time name="dav">    0.27    0.28</time>
   <time name="total">    0.32    0.33</time>
   <energy>
    <i name="e_fr_energy">    -16.67914600 </i>
    <i name="e_wo_entrp">    -16.67914600 </i>
    <i name="e_0_energy">    -16.67914600 </i>
   </energy>
  </scstep>
  <scstep>
   <time name="dav">    0.31    0.31</time>
   <time name="total">    0.36    0.37</time>
   <energy>
    <i name="e_fr_energy">    -16.67882541 </i>
    <i name="e_wo_entrp">    -16.67882541 </i>
    <i name="e_0_energy">    -16.67882541 </i>
   </energy>
  </scstep>
  <scstep>
   <time name="dav">    0.32    0.32</time>
   <time name="total">    0.37    0.37</time>
   <energy>
    <i name="e_fr_energy">    -16.67872741 </i>
    <i name="e_wo_entrp">    -16.67872741 </i>
    <i name="e_0_energy">    -16.67872741 </i>
   </energy>
  </scstep>
  <scstep>
   <time name="dav">    0.27    0.27</time>
   <time name="total">    0.31    0.32</time>
   <energy>
    <i name="e_fr_energy">    -16.67873292 </i>
    <i name="e_wo_entrp">    -16.67873292 </i>
    <i name="e_0_energy">    -16.67873292 </i>
   </energy>
  </scstep>
  <scstep>
   <time name="dav">    0.23    0.23</time>
   <time name="total">    0.27    0.28</time>
   <energy>
    <i name="e_fr_energy">    -16.67874057 </i>
    <i name="e_wo_entrp">    -16.67874057 </i>
    <i name="e_0_energy">    -16.67874057 </i>
   </energy>
  </scstep>
  <scstep>
   <time name="dav">    0.21    0.21</time>
   <time name="total">    0.26    0.26</time>
   <energy>
    <i name="e_fr_energy">    -16.67875311 </i>
    <i name="e_wo_entrp">    -16.67875311 </i>
    <i name="e_0_energy">    -16.67875311 </i>
   </energy>
  </scstep>
  <scstep>
   <time name="dav">    0.21    0.21</time>
   <time name="total">    0.26    0.26</time>
   <energy>
    <i name="e_fr_energy">    -16.67876564 </i>
    <i name="e_wo_entrp">    -16.67876564 </i>
    <i name="e_0_energy">    -16.67876564 </i>
   </energy>
  </scstep>
  <scstep>
   <time name="dav">    0.21    0.22</time>
   <time name="total">    0.26    0.26</time>
   <energy>
    <i name="e_fr_energy">    -16.67878247 </i>
    <i name="e_wo_entrp">    -16.67878247 </i>
    <i name="e_0_energy">    -16.67878247 </i>
   </energy>
  </scstep>
  <scstep>
   <time name="dav">    0.21    0.21</time>
   <time name="total">    0.26    0.26</time>
   <energy>
    <i name="e_fr_energy">    -16.67878738 </i>
    <i name="e_wo_entrp">    -16.67878738 </i>
    <i name="e_0_energy">    -16.67878738 </i>
   </energy>
  </scstep>
  <scstep>
   <time name="dav">    0.20    0.21</time>
   <time name="total">    0.25    0.26</time>
   <energy>
    <i name="e_fr_energy">    -16.67879093 </i>
    <i name="e_wo_entrp">    -16.67879093 </i>
    <i name="e_0_energy">    -16.67879093 </i>
   </energy>
  </scstep>
  <scstep>
   <time name="dav">    0.22    0.22</time>
   <time name="total">    0.24    0.24</time>
   <energy>
    <i name="alphaZ">     26.99877813 </i>
    <i name="ewald">   4967.30739710 </i>
    <i name="hartreedc">  -9330.00753276 </i>
    <i name="XCdc">    129.25727586 </i>
    <i name="pawpsdc">   5023.93406621 </i>
    <i name="pawaedc">  -5854.04484104 </i>
    <i name="eentropy">     -0.00000000 </i>
    <i name="bandstr">   -672.65097618 </i>
    <i name="atom">   5692.52704122 </i>
    <i name="e_fr_energy">    -16.67879146 </i>
    <i name="e_wo_entrp">    -16.67879146 </i>
    <i name="e_0_energy">    -16.67879146 </i>
   </energy>
  </scstep>
  <structure>
   <crystal>
    <varray name="basis" >
     <v>       4.47652388      -0.00002415      -0.00618672 </v>
     <v>      -0.00002166       3.99072905      -0.00029901 </v>
     <v>      -0.02735671      -0.00148800      19.80076771 </v>
    </varray>
    <i name="volume">    353.73199662 </i>
    <varray name="rec_basis" >
     <v>       0.22338804       0.00000124       0.00030863 </v>
     <v>       0.00000138       0.25058078       0.00001883 </v>
     <v>       0.00006980       0.00000378       0.05050319 </v>
    </varray>
   </crystal>
   <varray name="positions" >
    <v>       0.04073463       0.70719700       0.56549896 </v>
    <v>       0.61688868       0.20711670       0.44185136 </v>
    <v>       0.17721605       0.70709531       0.42910176 </v>
    <v>       0.68931762       0.20716498       0.56091095 </v>
   </varray>
  </structure>
  <varray name="forces" >
   <v>       0.01809457      -0.00008330      -0.02354426 </v>
   <v>      -0.01792036      -0.00001138      -0.02091687 </v>
   <v>       0.01461505      -0.00008329      -0.00353221 </v>
   <v>      -0.01478927       0.00017797       0.04799334 </v>
  </varray>
  <varray name="stress" >
   <v>      -0.42170864      -0.00021586       0.02144397 </v>
   <v>      -0.00021578      -0.11417002       0.00155059 </v>
   <v>       0.02144404       0.00155067      -0.20044884 </v>
  </varray>
  <energy>
   <i name="e_fr_energy">    -16.67879146 </i>
   <i name="e_wo_entrp">    -16.67879146 </i>
   <i name="e_0_energy">     -0.00000000 </i>
  </energy>
  <time name="totalsc">    3.92    4.21</time>
 </calculation>
 <calculation>
  <scstep>
   <time name="dav">    0.28    0.29</time>
   <time name="total">    0.33    0.37</time>
   <energy>
    <i name="alphaZ">     27.04693374 </i>
    <i name="ewald">   4961.84251444 </i>
    <i name="hartreedc">  -9327.50011944 </i>
    <i name="XCdc">    129.34780325 </i>
    <i name="pawpsdc">   5023.93513029 </i>
    <i name="pawaedc">  -5854.04587739 </i>
    <i name="eentropy">     -0.00000000 </i>
    <i name="bandstr">   -669.83364812 </i>
    <i name="atom">   5692.52704122 </i>
    <i name="e_fr_energy">    -16.68022200 </i>
    <i name="e_wo_entrp">    -16.68022200 </i>
    <i name="e_0_energy">    -16.68022200 </i>
   </energy>
  </scstep>
  <scstep>
   <time name="dav">    0.26    0.26</time>
   <time name="total">    0.31    0.31</time>
   <energy>
    <i name="e_fr_energy">    -16.67936040 </i>
    <i name="e_wo_entrp">    -16.67936040 </i>
    <i name="e_0_energy">    -16.67936040 </i>
   </energy>
  </scstep>
  <scstep>
   <time name="dav">    0.27    0.27</time>
   <time name="total">    0.32    0.32</time>
   <energy>
    <i name="e_fr_energy">    -16.67904056 </i>
    <i name="e_wo_entrp">    -16.67904056 </i>
    <i name="e_0_energy">    -16.67904056 </i>
   </energy>
  </scstep>
  <scstep>
   <time name="dav">    0.28    0.28</time>
   <time name="total">    0.32    0.33</time>
   <energy>
    <i name="e_fr_energy">    -16.67900275 </i>
    <i name="e_wo_entrp">    -16.67900275 </i>
    <i name="e_0_energy">    -16.67900275 </i>
   </energy>
  </scstep>
  <scstep>
   <time name="dav">    0.28    0.28</time>
   <time name="total">    0.33    0.33</time>
   <energy>
    <i name="e_fr_energy">    -16.67900179 </i>
    <i name="e_wo_entrp">    -16.67900179 </i>
    <i name="e_0_energy">    -16.67900179 </i>
   </energy>
  </scstep>
  <scstep>
   <time name="dav">    0.20    0.20</time>
   <time name="total">    0.24    0.25</time>
   <energy>
    <i name="e_fr_energy">    -16.67900734 </i>
    <i name="e_wo_entrp">    -16.67900734 </i>
    <i name="e_0_energy">    -16.67900734 </i>
   </energy>
  </scstep>
  <scstep>
   <time name="dav">    0.20    0.20</time>
   <time name="total">    0.25    0.25</time>
   <energy>
    <i name="e_fr_energy">    -16.67901245 </i>
    <i name="e_wo_entrp">    -16.67901245 </i>
    <i name="e_0_energy">    -16.67901245 </i>
   </energy>
  </scstep>
  <scstep>
   <time name="dav">    0.21    0.21</time>
   <time name="total">    0.26    0.26</time>
   <energy>
    <i name="e_fr_energy">    -16.67901760 </i>
    <i name="e_wo_entrp">    -16.67901760 </i>
    <i name="e_0_energy">    -16.67901760 </i>
   </energy>
  </scstep>
  <scstep>
   <time name="dav">    0.21    0.21</time>
   <time name="total">    0.25    0.26</time>
   <energy>
    <i name="e_fr_energy">    -16.67902688 </i>
    <i name="e_wo_entrp">    -16.67902688 </i>
    <i name="e_0_energy">    -16.67902688 </i>
   </energy>
  </scstep>
  <scstep>
   <time name="dav">    0.21    0.21</time>
   <time name="total">    0.26    0.26</time>
   <energy>
    <i name="e_fr_energy">    -16.67902887 </i>
    <i name="e_wo_entrp">    -16.67902887 </i>
    <i name="e_0_energy">    -16.67902887 </i>
   </energy>
  </scstep>
  <scstep>
   <time name="dav">    0.19    0.19</time>
   <time name="total">    0.24    0.24</time>
   <energy>
    <i name="e_fr_energy">    -16.67903182 </i>
    <i name="e_wo_entrp">    -16.67903182 </i>
    <i name="e_0_energy">    -16.67903182 </i>
   </energy>
  </scstep>
  <scstep>
   <time name="dav">    0.21    0.21</time>
   <time name="total">    0.23    0.23</time>
   <energy>
    <i name="alphaZ">     27.04693374 </i>
    <i name="ewald">   4961.84251444 </i>
    <i name="hartreedc">  -9324.75106602 </i>
    <i name="XCdc">    129.26274588 </i>
    <i name="pawpsdc">   5025.21563955 </i>
    <i name="pawaedc">  -5855.33036334 </i>
    <i name="eentropy">     -0.00000000 </i>
    <i name="bandstr">   -672.49247772 </i>
    <i name="atom">   5692.52704122 </i>
    <i name="e_fr_energy">    -16.67903225 </i>
    <i name="e_wo_entrp">    -16.67903225 </i>
    <i name="e_0_energy">    -16.67903225 </i>
   </energy>
  </scstep>
  <structure>
   <crystal>
    <varray name="basis" >
     <v>       4.47272107      -0.00002527      -0.00622325 </v>
     <v>      -0.00002267       3.99114135      -0.00032315 </v>
     <v>      -0.02752336      -0.00160944      19.78027557 </v>
    </varray>
    <i name="volume">    353.10219586 </i>
    <varray name="rec_basis" >
     <v>       0.22357798       0.00000130       0.00031110 </v>
     <v>       0.00000144       0.25055490       0.00002039 </v>
     <v>       0.00007034       0.00000409       0.05055551 </v>
    </varray>
   </crystal>
   <varray name="positions" >
    <v>       0.04086474       0.70719213       0.56545320 </v>
    <v>       0.61714797       0.20712108       0.44187230 </v>
    <v>       0.17697458       0.70709423       0.42898570 </v>
    <v>       0.68916970       0.20716654       0.56105184 </v>
   </varray>
  </structure>
  <varray name="forces" >
   <v>       0.02137893       0.00000060      -0.01120624 </v>
   <v>      -0.02031272      -0.00007720      -0.02206616 </v>
   <v>       0.01607609      -0.00010751      -0.01152913 </v>
   <v>      -0.01714230       0.00018411       0.04480154 </v>
  </varray>
  <varray name="stress" >
   <v>      -0.35301625      -0.00024539       0.03042976 </v>
   <v>      -0.00024524      -0.03827899       0.00213814 </v>
   <v>       0.03042974       0.00213811      -0.09316270 </v>
  </varray>
  <energy>
   <i name="e_fr_energy">    -16.67903225 </i>
   <i name="e_wo_entrp">    -16.67903225 </i>
   <i name="e_0_energy">     -0.00000000 </i>
  </energy>
  <time name="totalsc">    3.82    3.99</time>
 </calculation>
 <calculation>
  <scstep>
   <time name="dav">    0.28    0.29</time>
   <time name="total">    0.33    0.37</time>
   <energy>
    <i name="alphaZ">     27.19221175 </i>
    <i name="ewald">   4945.40093724 </i>
    <i name="hartreedc">  -9317.20657463 </i>
    <i name="XCdc">    129.53499235 </i>
    <i name="pawpsdc">   5025.21684340 </i>
    <i name="pawaedc">  -5855.33162787 </i>
    <i name="eentropy">     -0.00000000 </i>
    <i name="bandstr">   -664.02411208 </i>
    <i name="atom">   5692.52704122 </i>
    <i name="e_fr_energy">    -16.69028861 </i>
    <i name="e_wo_entrp">    -16.69028861 </i>
    <i name="e_0_energy">    -16.69028861 </i>
   </energy>
  </scstep>
  <scstep>
   <time name="dav">    0.26    0.26</time>
   <time name="total">    0.31    0.31</time>
   <energy>
    <i name="e_fr_energy">    -16.68258393 </i>
    <i name="e_wo_entrp">    -16.68258393 </i>
    <i name="e_0_energy">    -16.68258393 </i>
   </energy>
  </scstep>
  <scstep>
   <time name="dav">    0.27    0.27</time>
   <time name="total">    0.32    0.32</time>
   <energy>
    <i name="e_fr_energy">    -16.67969021 </i>
    <i name="e_wo_entrp">    -16.67969021 </i>
    <i name="e_0_energy">    -16.67969021 </i>
   </energy>
  </scstep>
  <scstep>
   <time name="dav">    0.27    0.27</time>
   <time name="total">    0.32    0.32</time>
   <energy>
    <i name="e_fr_energy">    -16.67936458 </i>
    <i name="e_wo_entrp">    -16.67936458 </i>
    <i name="e_0_energy">    -16.67936458 </i>
   </energy>
  </scstep>
  <scstep>
   <time name="dav">    0.28    0.28</time>
   <time name="total">    0.32    0.33</time>
   <energy>
    <i name="e_fr_energy">    -16.67935818 </i>
    <i name="e_wo_entrp">    -16.67935818 </i>
    <i name="e_0_energy">    -16.67935818 </i>
   </energy>
  </scstep>
  <scstep>
   <time name="dav">    0.25    0.25</time>
   <time name="total">    0.30    0.30</time>
   <energy>
    <i name="e_fr_energy">    -16.67939458 </i>
    <i name="e_wo_entrp">    -16.67939458 </i>
    <i name="e_0_energy">    -16.67939458 </i>
   </energy>
  </scstep>
  <scstep>
   <time name="dav">    0.22    0.23</time>
   <time name="total">    0.27    0.27</time>
   <energy>
    <i name="e_fr_energy">    -16.67942318 </i>
    <i name="e_wo_entrp">    -16.67942318 </i>
    <i name="e_0_energy">    -16.67942318 </i>
   </energy>
  </scstep>
  <scstep>
   <time name="dav">    0.22    0.22</time>
   <time name="total">    0.27    0.27</time>
   <energy>
    <i name="e_fr_energy">    -16.67944791 </i>
    <i name="e_wo_entrp">    -16.67944791 </i>
    <i name="e_0_energy">    -16.67944791 </i>
   </energy>
  </scstep>
  <scstep>
   <time name="dav">    0.22    0.22</time>
   <time name="total">    0.27    0.27</time>
   <energy>
    <i name="e_fr_energy">    -16.67949470 </i>
    <i name="e_wo_entrp">    -16.67949470 </i>
    <i name="e_0_energy">    -16.67949470 </i>
   </energy>
  </scstep>
  <scstep>
   <time name="dav">    0.21    0.21</time>
   <time name="total">    0.26    0.26</time>
   <energy>
    <i name="e_fr_energy">    -16.67950438 </i>
    <i name="e_wo_entrp">    -16.67950438 </i>
    <i name="e_0_energy">    -16.67950438 </i>
   </energy>
  </scstep>
  <scstep>
   <time name="dav">    0.22    0.22</time>
   <time name="total">    0.27    0.27</time>
   <energy>
    <i name="e_fr_energy">    -16.67952273 </i>
    <i name="e_wo_entrp">    -16.67952273 </i>
    <i name="e_0_energy">    -16.67952273 </i>
   </energy>
  </scstep>
  <scstep>
   <time name="dav">    0.21    0.22</time>
   <time name="total">    0.26    0.26</time>
   <energy>
    <i name="e_fr_energy">    -16.67952511 </i>
    <i name="e_wo_entrp">    -16.67952511 </i>
    <i name="e_0_energy">    -16.67952511 </i>
   </energy>
  </scstep>
  <scstep>
   <time name="dav">    0.21    0.21</time>
   <time name="total">    0.23    0.24</time>
   <energy>
    <i name="alphaZ">     27.19221175 </i>
    <i name="ewald">   4945.40093724 </i>
    <i name="hartreedc">  -9308.94764903 </i>
    <i name="XCdc">    129.27925181 </i>
    <i name="pawpsdc">   5029.12422954 </i>
    <i name="pawaedc">  -5859.25141217 </i>
    <i name="eentropy">     -0.00000000 </i>
    <i name="bandstr">   -672.00413635 </i>
    <i name="atom">   5692.52704122 </i>
    <i name="e_fr_energy">    -16.67952600 </i>
    <i name="e_wo_entrp">    -16.67952600 </i>
    <i name="e_0_energy">    -16.67952600 </i>
   </energy>
  </scstep>
  <structure>
   <crystal>
    <varray name="basis" >
     <v>       4.46131267      -0.00002864      -0.00633283 </v>
     <v>      -0.00002570       3.99237822      -0.00039555 </v>
     <v>      -0.02802328      -0.00197377      19.71879915 </v>
    </varray>
    <i name="volume">    351.21570049 </i>
    <varray name="rec_basis" >
     <v>       0.22414973       0.00000147       0.00031855 </v>
     <v>       0.00000164       0.25047727       0.00002507 </v>
     <v>       0.00007199       0.00000502       0.05071313 </v>
    </varray>
   </crystal>
   <varray name="positions" >
    <v>       0.04125538       0.70717754       0.56531575 </v>
    <v>       0.61792648       0.20713422       0.44193517 </v>
    <v>       0.17624955       0.70709098       0.42863718 </v>
    <v>       0.68872558       0.20717125       0.56147493 </v>
   </varray>
  </structure>
  <varray name="forces" >
   <v>       0.03108171       0.00020253       0.02575065 </v>
   <v>      -0.02690907      -0.00030013      -0.02538522 </v>
   <v>       0.01995928      -0.00007299      -0.03588301 </v>
   <v>      -0.02413191       0.00017058       0.03551759 </v>
  </varray>
  <varray name="stress" >
   <v>      -0.14449443      -0.00003877       0.05649186 </v>
   <v>      -0.00003883       0.18990129       0.00409393 </v>
   <v>       0.05649173       0.00409411       0.23195267 </v>
  </varray>
  <energy>
   <i name="e_fr_energy">    -16.67952600 </i>
   <i name="e_wo_entrp">    -16.67952600 </i>
   <i name="e_0_energy">     -0.00000000 </i>
  </energy>
  <time name="totalsc">    4.20    4.39</time>
 </calculation>
 <calculation>
  <scstep>
   <time name="dav">    0.28    0.28</time>
   <time name="total">    0.33    0.36</time>
   <energy>
    <i name="alphaZ">     27.48646437 </i>
    <i name="ewald">   4912.30014970 </i>
    <i name="hartreedc">  -9293.72974812 </i>
    <i name="XCdc">    129.82652804 </i>
    <i name="pawpsdc">   5029.11627555 </i>
    <i name="pawaedc">  -5859.24355883 </i>
    <i name="eentropy">     -0.00000000 </i>
    <i name="bandstr">   -655.00560033 </i>
    <i name="atom">   5692.52704122 </i>
    <i name="e_fr_energy">    -16.72244841 </i>
    <i name="e_wo_entrp">    -16.72244841 </i>
    <i name="e_0_energy">    -16.72244841 </i>
   </energy>
  </scstep>
  <scstep>
   <time name="dav">    0.26    0.27</time>
   <time name="total">    0.31    0.32</time>
   <energy>
    <i name="e_fr_energy">    -16.69179724 </i>
    <i name="e_wo_entrp">    -16.69179724 </i>
    <i name="e_0_energy">    -16.69179724 </i>
   </energy>
  </scstep>
  <scstep>
   <time name="dav">    0.27    0.28</time>
   <time name="total">    0.32    0.32</time>
   <energy>
    <i name="e_fr_energy">    -16.68032417 </i>
    <i name="e_wo_entrp">    -16.68032417 </i>
    <i name="e_0_energy">    -16.68032417 </i>
   </energy>
  </scstep>
  <scstep>
   <time name="dav">    0.28    0.29</time>
   <time name="total">    0.33    0.33</time>
   <energy>
    <i name="e_fr_energy">    -16.67905809 </i>
    <i name="e_wo_entrp">    -16.67905809 </i>
    <i name="e_0_energy">    -16.67905809 </i>
   </energy>
  </scstep>
  <scstep>
   <time name="dav">    0.26    0.26</time>
   <time name="total">    0.31    0.31</time>
   <energy>
[...]
       <r>    1.8006    0.0000 </r>
       <r>    2.2448    0.0000 </r>
       <r>    2.6884    0.0000 </r>
       <r>    3.2065    0.0000 </r>
      </set>
      <set comment="kpoint 22">
       <r>  -25.3350    1.0000 </r>
       <r>  -25.3236    1.0000 </r>
       <r>  -25.2968    1.0000 </r>
       <r>  -25.2904    1.0000 </r>
       <r>  -25.2796    1.0000 </r>
       <r>  -25.0244    1.0000 </r>
       <r>  -25.0195    1.0000 </r>
       <r>  -25.0084    1.0000 </r>
       <r>  -24.9951    1.0000 </r>
       <r>  -24.9894    1.0000 </r>
       <r>  -13.3939    1.0000 </r>
       <r>  -11.3395    1.0000 </r>
       <r>   -8.4663    1.0000 </r>
       <r>   -8.1633    1.0000 </r>
       <r>   -5.4078    1.0000 </r>
       <r>   -4.9863    1.0000 </r>
       <r>   -4.2211    1.0000 </r>
       <r>   -3.7604    1.0000 </r>
       <r>   -2.7650    1.0000 </r>
       <r>   -1.9406    1.0000 </r>
       <r>    2.0553    0.0000 </r>
       <r>    2.6234    0.0000 </r>
       <r>    3.5174    0.0000 </r>
       <r>    3.9720    0.0000 </r>
      </set>
      <set comment="kpoint 23">
       <r>  -25.3350    1.0000 </r>
       <r>  -25.3236    1.0000 </r>
       <r>  -25.2968    1.0000 </r>
       <r>  -25.2904    1.0000 </r>
       <r>  -25.2796    1.0000 </r>
       <r>  -25.0244    1.0000 </r>
       <r>  -25.0195    1.0000 </r>
       <r>  -25.0084    1.0000 </r>
       <r>  -24.9951    1.0000 </r>
       <r>  -24.9894    1.0000 </r>
       <r>  -13.3939    1.0000 </r>
       <r>  -11.3394    1.0000 </r>
       <r>   -8.4668    1.0000 </r>
       <r>   -8.1628    1.0000 </r>
       <r>   -5.4072    1.0000 </r>
       <r>   -4.9870    1.0000 </r>
       <r>   -4.2219    1.0000 </r>
       <r>   -3.7597    1.0000 </r>
       <r>   -2.7647    1.0000 </r>
       <r>   -1.9405    1.0000 </r>
       <r>    2.0547    0.0000 </r>
       <r>    2.6234    0.0000 </r>
       <r>    3.5142    0.0000 </r>
       <r>    3.9768    0.0000 </r>
      </set>
      <set comment="kpoint 24">
       <r>  -25.3346    1.0000 </r>
       <r>  -25.3238    1.0000 </r>
       <r>  -25.2970    1.0000 </r>
       <r>  -25.2904    1.0000 </r>
       <r>  -25.2795    1.0000 </r>
       <r>  -25.0239    1.0000 </r>
       <r>  -25.0195    1.0000 </r>
       <r>  -25.0090    1.0000 </r>
       <r>  -24.9950    1.0000 </r>
       <r>  -24.9893    1.0000 </r>
       <r>  -13.4529    1.0000 </r>
       <r>  -11.4803    1.0000 </r>
       <r>   -8.6494    1.0000 </r>
       <r>   -8.2290    1.0000 </r>
       <r>   -5.0637    1.0000 </r>
       <r>   -4.2948    1.0000 </r>
       <r>   -3.9801    1.0000 </r>
       <r>   -3.2804    1.0000 </r>
       <r>   -2.5462    1.0000 </r>
       <r>   -1.8558    1.0000 </r>
       <r>    1.7999    0.0000 </r>
       <r>    2.2421    0.0000 </r>
       <r>    2.6898    0.0000 </r>
       <r>    3.2091    0.0000 </r>
      </set>
      <set comment="kpoint 25">
       <r>  -25.3342    1.0000 </r>
       <r>  -25.3241    1.0000 </r>
       <r>  -25.2972    1.0000 </r>
       <r>  -25.2903    1.0000 </r>
       <r>  -25.2794    1.0000 </r>
       <r>  -25.0233    1.0000 </r>
       <r>  -25.0195    1.0000 </r>
       <r>  -25.0098    1.0000 </r>
       <r>  -24.9949    1.0000 </r>
       <r>  -24.9892    1.0000 </r>
       <r>  -13.5236    1.0000 </r>
       <r>  -11.6356    1.0000 </r>
       <r>   -8.8514    1.0000 </r>
       <r>   -8.3253    1.0000 </r>
       <r>   -4.3538    1.0000 </r>
       <r>   -3.7920    1.0000 </r>
       <r>   -3.3160    1.0000 </r>
       <r>   -2.8144    1.0000 </r>
       <r>   -2.0273    1.0000 </r>
       <r>   -1.4322    1.0000 </r>
       <r>    0.8772    0.0000 </r>
       <r>    1.5058    0.0000 </r>
       <r>    1.8043    0.0000 </r>
       <r>    2.2281    0.0000 </r>
      </set>
     </set>
    </set>
   </array>
  </eigenvalues>
  <separator name="orbital magnetization" >
   <v name="MAGDIPOLOUT">      0.00000000      0.00000000      0.00000000</v>
  </separator>
  <dos>
   <i name="efermi">     -0.03559947 </i>
   <total>
    <array>
     <dimension dim="1">gridpoints</dimension>
     <dimension dim="2">spin</dimension>
     <field>energy</field>
     <field>total</field>
     <field>integrated</field>
     <set>
      <set comment="spin 1">
       <r>   -26.8006     0.0000     0.0000 </r>
       <r>   -26.6931     0.0000     0.0000 </r>
       <r>   -26.5856     0.0000     0.0000 </r>
       <r>   -26.4782     0.0000     0.0000 </r>
       <r>   -26.3707     0.0000     0.0000 </r>
       <r>   -26.2632     0.0000     0.0000 </r>
       <r>   -26.1557     0.0000     0.0000 </r>
       <r>   -26.0482     0.0000     0.0000 </r>
       <r>   -25.9408     0.0000     0.0000 </r>
       <r>   -25.8333     0.0000     0.0000 </r>
       <r>   -25.7258     0.0000     0.0000 </r>
       <r>   -25.6183     0.0009     0.0001 </r>
       <r>   -25.5109     0.2430     0.0262 </r>
       <r>   -25.4034     8.2773     0.9158 </r>
       <r>   -25.2959    42.6426     5.4989 </r>
       <r>   -25.1884    37.1949     9.4965 </r>
       <r>   -25.0810    18.8763    11.5252 </r>
       <r>   -24.9735    49.2366    16.8170 </r>
       <r>   -24.8660    27.3211    19.7534 </r>
       <r>   -24.7585     2.2697    19.9973 </r>
       <r>   -24.6511     0.0250    20.0000 </r>
       <r>   -24.5436     0.0000    20.0000 </r>
       <r>   -24.4361     0.0000    20.0000 </r>
       <r>   -24.3286     0.0000    20.0000 </r>
       <r>   -24.2211     0.0000    20.0000 </r>
       <r>   -24.1137     0.0000    20.0000 </r>
       <r>   -24.0062     0.0000    20.0000 </r>
       <r>   -23.8987     0.0000    20.0000 </r>
       <r>   -23.7912     0.0000    20.0000 </r>
       <r>   -23.6838     0.0000    20.0000 </r>
       <r>   -23.5763     0.0000    20.0000 </r>
       <r>   -23.4688     0.0000    20.0000 </r>
       <r>   -23.3613     0.0000    20.0000 </r>
       <r>   -23.2539     0.0000    20.0000 </r>
       <r>   -23.1464     0.0000    20.0000 </r>
       <r>   -23.0389     0.0000    20.0000 </r>
       <r>   -22.9314     0.0000    20.0000 </r>
       <r>   -22.8240     0.0000    20.0000 </r>
       <r>   -22.7165     0.0000    20.0000 </r>
       <r>   -22.6090     0.0000    20.0000 </r>
       <r>   -22.5015     0.0000    20.0000 </r>
       <r>   -22.3940     0.0000    20.0000 </r>
       <r>   -22.2866     0.0000    20.0000 </r>
       <r>   -22.1791     0.0000    20.0000 </r>
       <r>   -22.0716     0.0000    20.0000 </r>
       <r>   -21.9641     0.0000    20.0000 </r>
       <r>   -21.8567     0.0000    20.0000 </r>
       <r>   -21.7492     0.0000    20.0000 </r>
       <r>   -21.6417     0.0000    20.0000 </r>
       <r>   -21.5342     0.0000    20.0000 </r>
       <r>   -21.4268     0.0000    20.0000 </r>
       <r>   -21.3193     0.0000    20.0000 </r>
       <r>   -21.2118     0.0000    20.0000 </r>
       <r>   -21.1043     0.0000    20.0000 </r>
       <r>   -20.9969     0.0000    20.0000 </r>
       <r>   -20.8894     0.0000    20.0000 </r>
       <r>   -20.7819     0.0000    20.0000 </r>
       <r>   -20.6744     0.0000    20.0000 </r>
       <r>   -20.5669     0.0000    20.0000 </r>
       <r>   -20.4595     0.0000    20.0000 </r>
       <r>   -20.3520     0.0000    20.0000 </r>
       <r>   -20.2445     0.0000    20.0000 </r>
       <r>   -20.1370     0.0000    20.0000 </r>
       <r>   -20.0296     0.0000    20.0000 </r>
       <r>   -19.9221     0.0000    20.0000 </r>
       <r>   -19.8146     0.0000    20.0000 </r>
       <r>   -19.7071     0.0000    20.0000 </r>
       <r>   -19.5997     0.0000    20.0000 </r>
       <r>   -19.4922     0.0000    20.0000 </r>
       <r>   -19.3847     0.0000    20.0000 </r>
       <r>   -19.2772     0.0000    20.0000 </r>
       <r>   -19.1698     0.0000    20.0000 </r>
       <r>   -19.0623     0.0000    20.0000 </r>
       <r>   -18.9548     0.0000    20.0000 </r>
       <r>   -18.8473     0.0000    20.0000 </r>
       <r>   -18.7399     0.0000    20.0000 </r>
       <r>   -18.6324     0.0000    20.0000 </r>
       <r>   -18.5249     0.0000    20.0000 </r>
       <r>   -18.4174     0.0000    20.0000 </r>
       <r>   -18.3099     0.0000    20.0000 </r>
       <r>   -18.2025     0.0000    20.0000 </r>
       <r>   -18.0950     0.0000    20.0000 </r>
       <r>   -17.9875     0.0000    20.0000 </r>
       <r>   -17.8800     0.0000    20.0000 </r>
       <r>   -17.7726     0.0000    20.0000 </r>
       <r>   -17.6651     0.0000    20.0000 </r>
       <r>   -17.5576     0.0000    20.0000 </r>
       <r>   -17.4501     0.0000    20.0000 </r>
       <r>   -17.3427     0.0000    20.0000 </r>
       <r>   -17.2352     0.0000    20.0000 </r>
       <r>   -17.1277     0.0000    20.0000 </r>
       <r>   -17.0202     0.0000    20.0000 </r>
       <r>   -16.9128     0.0000    20.0000 </r>
       <r>   -16.8053     0.0000    20.0000 </r>
       <r>   -16.6978     0.0000    20.0000 </r>
       <r>   -16.5903     0.0000    20.0000 </r>
       <r>   -16.4828     0.0000    20.0000 </r>
       <r>   -16.3754     0.0000    20.0000 </r>
       <r>   -16.2679     0.0000    20.0000 </r>
       <r>   -16.1604     0.0000    20.0000 </r>
       <r>   -16.0529     0.0000    20.0000 </r>
       <r>   -15.9455     0.0000    20.0000 </r>
       <r>   -15.8380     0.0000    20.0000 </r>
       <r>   -15.7305     0.0000    20.0000 </r>
       <r>   -15.6230     0.0000    20.0000 </r>
       <r>   -15.5156     0.0000    20.0000 </r>
       <r>   -15.4081     0.0000    20.0000 </r>
       <r>   -15.3006     0.0000    20.0000 </r>
       <r>   -15.1931     0.0000    20.0000 </r>
       <r>   -15.0857     0.0000    20.0000 </r>
       <r>   -14.9782     0.0000    20.0000 </r>
       <r>   -14.8707     0.0000    20.0000 </r>
       <r>   -14.7632     0.0000    20.0000 </r>
       <r>   -14.6557     0.0000    20.0000 </r>
       <r>   -14.5483     0.0000    20.0000 </r>
       <r>   -14.4408     0.0023    20.0002 </r>
       <r>   -14.3333     0.0783    20.0087 </r>
       <r>   -14.2258     0.5750    20.0705 </r>
       <r>   -14.1184     1.4568    20.2270 </r>
       <r>   -14.0109     1.7647    20.4167 </r>
       <r>   -13.9034     1.9410    20.6253 </r>
       <r>   -13.7959     2.7819    20.9243 </r>
       <r>   -13.6885     2.3650    21.1785 </r>
       <r>   -13.5810     2.1404    21.4085 </r>
       <r>   -13.4735     2.6979    21.6985 </r>
       <r>   -13.3660     2.0882    21.9229 </r>
       <r>   -13.2586     0.6704    21.9950 </r>
       <r>   -13.1511     0.0464    21.9999 </r>
       <r>   -13.0436     0.0005    22.0000 </r>
       <r>   -12.9361     0.0000    22.0000 </r>
       <r>   -12.8286     0.0000    22.0000 </r>
       <r>   -12.7212     0.0000    22.0000 </r>
       <r>   -12.6137     0.0000    22.0000 </r>
       <r>   -12.5062     0.0000    22.0000 </r>
       <r>   -12.3987     0.0003    22.0000 </r>
       <r>   -12.2913     0.0268    22.0029 </r>
       <r>   -12.1838     0.3984    22.0457 </r>
       <r>   -12.0763     1.6733    22.2256 </r>
       <r>   -11.9688     2.8864    22.5358 </r>
       <r>   -11.8614     2.8278    22.8397 </r>
       <r>   -11.7539     2.4798    23.1062 </r>
       <r>   -11.6464     2.7686    23.4038 </r>
       <r>   -11.5389     2.3999    23.6617 </r>
       <r>   -11.4315     1.3902    23.8111 </r>
       <r>   -11.3240     1.1089    23.9303 </r>
       <r>   -11.2165     0.5860    23.9933 </r>
       <r>   -11.1090     0.0616    23.9999 </r>
       <r>   -11.0016     0.0008    24.0000 </r>
       <r>   -10.8941     0.0000    24.0000 </r>
       <r>   -10.7866     0.0000    24.0000 </r>
       <r>   -10.6791     0.0000    24.0000 </r>
       <r>   -10.5716     0.0000    24.0000 </r>
       <r>   -10.4642     0.0000    24.0000 </r>
       <r>   -10.3567     0.0000    24.0000 </r>
       <r>   -10.2492     0.0000    24.0000 </r>
       <r>   -10.1417     0.0000    24.0000 </r>
       <r>   -10.0343     0.0000    24.0000 </r>
       <r>    -9.9268     0.0000    24.0000 </r>
       <r>    -9.8193     0.0000    24.0000 </r>
       <r>    -9.7118     0.0000    24.0000 </r>
       <r>    -9.6044     0.0000    24.0000 </r>
       <r>    -9.4969     0.0000    24.0000 </r>
       <r>    -9.3894     0.0000    24.0000 </r>
       <r>    -9.2819     0.0000    24.0000 </r>
       <r>    -9.1745     0.0002    24.0000 </r>
       <r>    -9.0670     0.0235    24.0026 </r>
       <r>    -8.9595     0.3609    24.0413 </r>
       <r>    -8.8520     1.5107    24.2037 </r>
       <r>    -8.7445     3.0611    24.5327 </r>
       <r>    -8.6371     4.2847    24.9932 </r>
       <r>    -8.5296     3.3191    25.3499 </r>
       <r>    -8.4221     2.6880    25.6388 </r>
       <r>    -8.3146     3.0145    25.9628 </r>
       <r>    -8.2072     3.2852    26.3159 </r>
       <r>    -8.0997     3.4468    26.6864 </r>
       <r>    -7.9922     2.1841    26.9211 </r>
       <r>    -7.8847     0.5431    26.9795 </r>
       <r>    -7.7773     0.4583    27.0287 </r>
       <r>    -7.6698     0.8311    27.1180 </r>
       <r>    -7.5623     0.6051    27.1831 </r>
       <r>    -7.4548     1.9553    27.3932 </r>
       <r>    -7.3474     1.8520    27.5923 </r>
       <r>    -7.2399     0.3623    27.6312 </r>
       <r>    -7.1324     0.0134    27.6326 </r>
       <r>    -7.0249     0.0036    27.6330 </r>
       <r>    -6.9174     0.1421    27.6483 </r>
       <r>    -6.8100     0.7462    27.7285 </r>
       <r>    -6.7025     0.6738    27.8009 </r>
       <r>    -6.5950     0.6131    27.8668 </r>
       <r>    -6.4875     0.6581    27.9376 </r>
       <r>    -6.3801     0.1976    27.9588 </r>
       <r>    -6.2726     0.1067    27.9703 </r>
       <r>    -6.1651     0.2080    27.9926 </r>
       <r>    -6.0576     0.0658    27.9997 </r>
       <r>    -5.9502     0.0028    28.0000 </r>
       <r>    -5.8427     0.0000    28.0000 </r>
       <r>    -5.7352     0.0000    28.0000 </r>
       <r>    -5.6277     0.0014    28.0002 </r>
       <r>    -5.5203     0.0828    28.0090 </r>
       <r>    -5.4128     0.6305    28.0768 </r>
       <r>    -5.3053     0.7344    28.1557 </r>
       <r>    -5.1978     0.8601    28.2482 </r>
       <r>    -5.0903     2.2697    28.4921 </r>
       <r>    -4.9829     2.0672    28.7143 </r>
       <r>    -4.8754     0.8562    28.8063 </r>
       <r>    -4.7679     0.1550    28.8230 </r>
       <r>    -4.6604     0.6829    28.8964 </r>
       <r>    -4.5530     1.8240    29.0924 </r>
       <r>    -4.4455     3.1090    29.4265 </r>
       <r>    -4.3380     5.0171    29.9658 </r>
       <r>    -4.2305     5.1717    30.5216 </r>
       <r>    -4.1231     4.2713    30.9807 </r>
       <r>    -4.0156     3.5379    31.3609 </r>
       <r>    -3.9081     3.4991    31.7370 </r>
       <r>    -3.8006     4.2622    32.1951 </r>
       <r>    -3.6932     4.0964    32.6353 </r>
       <r>    -3.5857     1.8236    32.8313 </r>
       <r>    -3.4782     1.2331    32.9639 </r>
       <r>    -3.3707     1.0397    33.0756 </r>
       <r>    -3.2632     2.4192    33.3356 </r>
       <r>    -3.1558     3.1013    33.6689 </r>
       <r>    -3.0483     3.3929    34.0336 </r>
       <r>    -2.9408     2.5327    34.3058 </r>
       <r>    -2.8333     1.8474    34.5043 </r>
       <r>    -2.7259     3.6305    34.8945 </r>
       <r>    -2.6184     4.2602    35.3524 </r>
       <r>    -2.5109     2.6861    35.6411 </r>
       <r>    -2.4034     2.8842    35.9511 </r>
       <r>    -2.2960     2.3075    36.1991 </r>
       <r>    -2.1885     1.4352    36.3533 </r>
       <r>    -2.0810     1.4803    36.5124 </r>
       <r>    -1.9735     2.8985    36.8240 </r>
       <r>    -1.8661     4.4367    37.3008 </r>
       <r>    -1.7586     4.7334    37.8095 </r>
       <r>    -1.6511     2.7689    38.1071 </r>
       <r>    -1.5436     2.5264    38.3786 </r>
       <r>    -1.4362     3.0161    38.7028 </r>
       <r>    -1.3287     1.8864    38.9055 </r>
       <r>    -1.2212     1.5140    39.0683 </r>
       <r>    -1.1137     1.4893    39.2283 </r>
       <r>    -1.0062     1.9938    39.4426 </r>
       <r>    -0.8988     2.1711    39.6760 </r>
       <r>    -0.7913     0.8927    39.7719 </r>
       <r>    -0.6838     0.8704    39.8655 </r>
       <r>    -0.5763     0.5993    39.9299 </r>
       <r>    -0.4689     0.4545    39.9787 </r>
       <r>    -0.3614     0.1865    39.9988 </r>
       <r>    -0.2539     0.0115    40.0000 </r>
       <r>    -0.1464     0.0001    40.0000 </r>
       <r>    -0.0390     0.0000    40.0000 </r>
       <r>     0.0685     0.0000    40.0000 </r>
       <r>     0.1760     0.0000    40.0000 </r>
       <r>     0.2835     0.0000    40.0000 </r>
       <r>     0.3909     0.0003    40.0000 </r>
       <r>     0.4984     0.0348    40.0038 </r>
       <r>     0.6059     0.5284    40.0606 </r>
       <r>     0.7134     1.6724    40.2403 </r>
       <r>     0.8209     2.0960    40.4656 </r>
       <r>     0.9283     2.2243    40.7046 </r>
       <r>     1.0358     2.9042    41.0168 </r>
       <r>     1.1433     3.4796    41.3907 </r>
       <r>     1.2508     4.4268    41.8665 </r>
       <r>     1.3582     4.5726    42.3580 </r>
       <r>     1.4657     2.1814    42.5924 </r>
       <r>     1.5732     2.3538    42.8454 </r>
       <r>     1.6807     3.5141    43.2231 </r>
       <r>     1.7881     4.5515    43.7123 </r>
       <r>     1.8956     4.0595    44.1486 </r>
       <r>     2.0031     2.9119    44.4615 </r>
       <r>     2.1106     2.6574    44.7471 </r>
       <r>     2.2180     1.9743    44.9593 </r>
       <r>     2.3255     2.5640    45.2349 </r>
       <r>     2.4330     1.8454    45.4332 </r>
       <r>     2.5405     2.2920    45.6796 </r>
       <r>     2.6480     4.5122    46.1645 </r>
       <r>     2.7554     4.2865    46.6252 </r>
       <r>     2.8629     1.6579    46.8034 </r>
       <r>     2.9704     1.1644    46.9285 </r>
       <r>     3.0779     1.6956    47.1108 </r>
       <r>     3.1853     2.1577    47.3427 </r>
       <r>     3.2928     2.1613    47.5750 </r>
       <r>     3.4003     0.9125    47.6730 </r>
       <r>     3.5078     0.6936    47.7476 </r>
       <r>     3.6152     0.7082    47.8237 </r>
       <r>     3.7227     0.1190    47.8365 </r>
       <r>     3.8302     0.0339    47.8401 </r>
       <r>     3.9377     0.4272    47.8860 </r>
       <r>     4.0451     0.8195    47.9741 </r>
       <r>     4.1526     0.2320    47.9990 </r>
       <r>     4.2601     0.0089    48.0000 </r>
       <r>     4.3676     0.0000    48.0000 </r>
       <r>     4.4751     0.0000    48.0000 </r>
       <r>     4.5825     0.0000    48.0000 </r>
       <r>     4.6900     0.0000    48.0000 </r>
       <r>     4.7975     0.0000    48.0000 </r>
       <r>     4.9050     0.0000    48.0000 </r>
       <r>     5.0124     0.0000    48.0000 </r>
       <r>     5.1199     0.0000    48.0000 </r>
       <r>     5.2274     0.0000    48.0000 </r>
       <r>     5.3349     0.0000    48.0000 </r>
       <r>     5.4423     0.0000    48.0000 </r>
      </set>
     </set>
    </array>
   </total>
  </dos>
 </calculation>
 <structure name="finalpos" >
  <crystal>
   <varray name="basis" >
    <v>       4.43132669       0.00004010      -0.00538051 </v>
    <v>      -0.00005460       4.00112707      -0.00146363 </v>
    <v>      -0.03084658      -0.00505128      13.68074429 </v>
   </varray>
   <i name="volume">    242.56301943 </i>
   <varray name="rec_basis" >
    <v>       0.22566667       0.00000327       0.00050882 </v>
    <v>      -0.00000215       0.24992961       0.00009228 </v>
    <v>       0.00008875       0.00002674       0.07309565 </v>
   </varray>
  </crystal>
  <varray name="positions" >
   <v>       0.04430505       0.70696182       0.59422061 </v>
   <v>       0.61767468       0.20726300       0.41699468 </v>
   <v>       0.17440130       0.70696411       0.39647432 </v>
   <v>       0.68777596       0.20738506       0.58967342 </v>
  </varray>
 </structure>
</modeling>
