   2   2   0   0
  0.5278472E+02  0.2468816E-09  0.2468816E-09  0.2000000E-08  0.5000000E-15
  1.000000000000000E-004
  CAR 
 unknown system                          
     11.72890510    -23.86719405  301     -2.75843325      1.00000000
    -23.867  0.0000E+00  0.0000E+00
    -23.749  0.0000E+00  0.0000E+00
    -23.630  0.0000E+00  0.0000E+00
    -23.511  0.0000E+00  0.0000E+00
    -23.393  0.0000E+00  0.0000E+00
    -23.274  0.0000E+00  0.0000E+00
    -23.155  0.0000E+00  0.0000E+00
    -23.037  0.0000E+00  0.0000E+00
    -22.918  0.0000E+00  0.0000E+00
    -22.799  0.2703E-17  0.3207E-18
    -22.681  0.3927E-12  0.4660E-13
    -22.562  0.3639E-08  0.4318E-09
    -22.443  0.2310E-05  0.2745E-06
    -22.325  0.1288E-03  0.1556E-04
    -22.206  0.1276E-02  0.1669E-03
    -22.087  0.2954E-02  0.5174E-03
    -21.969  0.2388E-02  0.8008E-03
    -21.850  0.4226E-02  0.1302E-02
    -21.731  0.2897E-02  0.1646E-02
    -21.613  0.1157E-02  0.1783E-02
    -21.494  0.4886E-02  0.2363E-02
    -21.375  0.3898E-02  0.2826E-02
    -21.257  0.2881E-02  0.3167E-02
    -21.138  0.1102E-02  0.3298E-02
    -21.020  0.2012E-02  0.3537E-02
    -20.901  0.6258E-02  0.4280E-02
    -20.782  0.4654E-02  0.4832E-02
    -20.664  0.1096E-02  0.4962E-02
    -20.545  0.2629E-02  0.5274E-02
    -20.426  0.1369E-02  0.5436E-02
    -20.308  0.2984E-02  0.5790E-02
    -20.189  0.5462E-02  0.6438E-02
    -20.070  0.5134E-02  0.7047E-02
    -19.952  0.3916E-02  0.7512E-02
    -19.833  0.4088E-03  0.7561E-02
    -19.714  0.1116E-02  0.7693E-02
    -19.596  0.2817E-02  0.8027E-02
    -19.477  0.3062E-02  0.8391E-02
    -19.358  0.6614E-02  0.9175E-02
    -19.240  0.4067E-02  0.9658E-02
    -19.121  0.2224E-02  0.9922E-02
    -19.002  0.5375E-02  0.1056E-01
    -18.884  0.1608E-02  0.1075E-01
    -18.765  0.5876E-04  0.1076E-01
    -18.646  0.7096E-03  0.1084E-01
    -18.528  0.4615E-02  0.1139E-01
    -18.409  0.6817E-02  0.1220E-01
    -18.290  0.5256E-02  0.1282E-01
    -18.172  0.4497E-02  0.1336E-01
    -18.053  0.6982E-03  0.1344E-01
    -17.935  0.2704E-02  0.1376E-01
    -17.816  0.5114E-02  0.1437E-01
    -17.697  0.1020E-02  0.1449E-01
    -17.579  0.8924E-04  0.1450E-01
    -17.460  0.2127E-02  0.1475E-01
    -17.341  0.8978E-02  0.1582E-01
    -17.223  0.6587E-02  0.1660E-01
    -17.104  0.4579E-02  0.1714E-01
    -16.985  0.5589E-02  0.1780E-01
    -16.867  0.3017E-02  0.1816E-01
    -16.748  0.5068E-03  0.1822E-01
    -16.629  0.1365E-04  0.1822E-01
    -16.511  0.3731E-03  0.1827E-01
    -16.392  0.3035E-02  0.1863E-01
    -16.273  0.6260E-02  0.1937E-01
    -16.155  0.3554E-02  0.1979E-01
    -16.036  0.3815E-03  0.1984E-01
    -15.917  0.1708E-02  0.2004E-01
    -15.799  0.2331E-02  0.2032E-01
    -15.680  0.6027E-03  0.2039E-01
    -15.561  0.2307E-02  0.2066E-01
    -15.443  0.3927E-02  0.2113E-01
    -15.324  0.8166E-02  0.2210E-01
    -15.205  0.5762E-02  0.2278E-01
    -15.087  0.5393E-03  0.2284E-01
    -14.968  0.1340E-03  0.2286E-01
    -14.850  0.3823E-02  0.2331E-01
    -14.731  0.1072E-01  0.2459E-01
    -14.612  0.3221E-02  0.2497E-01
    -14.494  0.6364E-03  0.2504E-01
    -14.375  0.4426E-02  0.2557E-01
    -14.256  0.3715E-02  0.2601E-01
    -14.138  0.1013E-02  0.2613E-01
    -14.019  0.2797E-02  0.2646E-01
    -13.900  0.3769E-02  0.2691E-01
    -13.782  0.6547E-02  0.2769E-01
    -13.663  0.3616E-02  0.2811E-01
    -13.544  0.5254E-03  0.2818E-01
    -13.426  0.4440E-04  0.2818E-01
    -13.307  0.9309E-03  0.2829E-01
    -13.188  0.4903E-02  0.2887E-01
    -13.070  0.4823E-02  0.2945E-01
    -12.951  0.4994E-02  0.3004E-01
    -12.832  0.3634E-02  0.3047E-01
    -12.714  0.2760E-02  0.3080E-01
    -12.595  0.5217E-02  0.3142E-01
    -12.476  0.1481E-02  0.3159E-01
    -12.358  0.3044E-02  0.3195E-01
    -12.239  0.6782E-02  0.3276E-01
    -12.120  0.5735E-02  0.3344E-01
    -12.002  0.1973E-02  0.3367E-01
    -11.883  0.1452E-03  0.3369E-01
    -11.765  0.6023E-03  0.3376E-01
    -11.646  0.3426E-02  0.3417E-01
    -11.527  0.6972E-02  0.3500E-01
    -11.409  0.1161E-01  0.3637E-01
    -11.290  0.4180E-02  0.3687E-01
    -11.171  0.3046E-03  0.3690E-01
    -11.053  0.2675E-02  0.3722E-01
    -10.934  0.5128E-02  0.3783E-01
    -10.815  0.1238E-02  0.3798E-01
    -10.697  0.3634E-02  0.3841E-01
    -10.578  0.7457E-02  0.3929E-01
    -10.459  0.3102E-02  0.3966E-01
    -10.341  0.5862E-02  0.4036E-01
    -10.222  0.8300E-02  0.4134E-01
    -10.103  0.9949E-02  0.4252E-01
     -9.985  0.4925E-02  0.4311E-01
     -9.866  0.4780E-02  0.4367E-01
     -9.747  0.9397E-02  0.4479E-01
     -9.629  0.9412E-02  0.4591E-01
     -9.510  0.6924E-02  0.4673E-01
     -9.391  0.1166E-01  0.4811E-01
     -9.273  0.8765E-02  0.4915E-01
     -9.154  0.8163E-02  0.5012E-01
     -9.035  0.1282E-01  0.5164E-01
     -8.917  0.1154E-01  0.5301E-01
     -8.798  0.1004E-01  0.5420E-01
     -8.680  0.7332E-02  0.5507E-01
     -8.561  0.7400E-02  0.5595E-01
     -8.442  0.6947E-02  0.5677E-01
     -8.324  0.3588E-02  0.5720E-01
     -8.205  0.4560E-02  0.5774E-01
     -8.086  0.1014E-01  0.5894E-01
     -7.968  0.1153E-01  0.6031E-01
     -7.849  0.1155E-01  0.6168E-01
     -7.730  0.6555E-02  0.6246E-01
     -7.612  0.9951E-03  0.6258E-01
     -7.493  0.2636E-03  0.6261E-01
     -7.374  0.3603E-02  0.6303E-01
     -7.256  0.8290E-02  0.6402E-01
     -7.137  0.9837E-02  0.6519E-01
     -7.018  0.9603E-02  0.6633E-01
     -6.900  0.7125E-02  0.6717E-01
     -6.781  0.3251E-02  0.6756E-01
     -6.662  0.5860E-02  0.6825E-01
     -6.544  0.4903E-02  0.6883E-01
     -6.425  0.4071E-02  0.6932E-01
     -6.306  0.2586E-02  0.6962E-01
     -6.188  0.5308E-02  0.7025E-01
     -6.069  0.6254E-02  0.7099E-01
     -5.950  0.9383E-02  0.7211E-01
     -5.832  0.7666E-02  0.7302E-01
     -5.713  0.3635E-02  0.7345E-01
     -5.595  0.4677E-02  0.7400E-01
     -5.476  0.3769E-02  0.7445E-01
     -5.357  0.8956E-03  0.7456E-01
     -5.239  0.2609E-02  0.7487E-01
     -5.120  0.1602E-02  0.7506E-01
     -5.001  0.4322E-02  0.7557E-01
     -4.883  0.1381E-01  0.7721E-01
     -4.764  0.8021E-02  0.7816E-01
     -4.645  0.5148E-03  0.7822E-01
     -4.527  0.3009E-05  0.7822E-01
     -4.408  0.7056E-04  0.7823E-01
     -4.289  0.1360E-02  0.7839E-01
     -4.171  0.2552E-02  0.7869E-01
     -4.052  0.5150E-03  0.7876E-01
     -3.933  0.8122E-03  0.7885E-01
     -3.815  0.4881E-02  0.7943E-01
     -3.696  0.3099E-02  0.7980E-01
     -3.577  0.1943E-03  0.7982E-01
     -3.459  0.9790E-06  0.7982E-01
     -3.340  0.3436E-09  0.7982E-01
     -3.221  0.9514E-13  0.7982E-01
     -3.103  0.1671E-08  0.7982E-01
     -2.984  0.2115E-05  0.7982E-01
     -2.865  0.1927E-03  0.7985E-01
     -2.747  0.1499E-02  0.8002E-01
     -2.628  0.1205E-02  0.8017E-01
     -2.510  0.9747E-04  0.8018E-01
     -2.391  0.6464E-06  0.8018E-01
     -2.272  0.3019E-09  0.8018E-01
     -2.154  0.2881E-11  0.8018E-01
     -2.035  0.3018E-07  0.8018E-01
     -1.916  0.2126E-04  0.8018E-01
     -1.798  0.1110E-02  0.8031E-01
     -1.679  0.5189E-02  0.8093E-01
     -1.560  0.2917E-02  0.8127E-01
     -1.442  0.2507E-02  0.8157E-01
     -1.323  0.1634E-02  0.8177E-01
     -1.204  0.4891E-03  0.8182E-01
     -1.086  0.3381E-02  0.8222E-01
     -0.967  0.7160E-02  0.8307E-01
     -0.848  0.5730E-02  0.8375E-01
     -0.730  0.5736E-02  0.8443E-01
     -0.611  0.5767E-02  0.8512E-01
     -0.492  0.3208E-02  0.8550E-01
     -0.374  0.4139E-02  0.8599E-01
     -0.255  0.4408E-02  0.8651E-01
     -0.136  0.5362E-03  0.8658E-01
     -0.018  0.7288E-05  0.8658E-01
      0.101  0.2742E-03  0.8661E-01
      0.219  0.3559E-02  0.8703E-01
      0.338  0.5458E-02  0.8768E-01
      0.457  0.3468E-02  0.8809E-01
      0.575  0.2962E-02  0.8844E-01
      0.694  0.7936E-02  0.8939E-01
      0.813  0.4001E-02  0.8986E-01
      0.931  0.1974E-02  0.9009E-01
      1.050  0.3752E-02  0.9054E-01
      1.169  0.6015E-02  0.9125E-01
      1.287  0.5734E-02  0.9193E-01
      1.406  0.2678E-02  0.9225E-01
      1.525  0.7191E-02  0.9310E-01
      1.643  0.5165E-02  0.9372E-01
      1.762  0.6009E-02  0.9443E-01
      1.881  0.1390E-01  0.9608E-01
      1.999  0.7504E-02  0.9697E-01
      2.118  0.6467E-02  0.9774E-01
      2.237  0.1142E-01  0.9909E-01
      2.355  0.1373E-01  0.1007E+00
      2.474  0.8258E-02  0.1017E+00
      2.593  0.3355E-02  0.1021E+00
      2.711  0.9126E-02  0.1032E+00
      2.830  0.9526E-02  0.1043E+00
      2.949  0.7278E-02  0.1052E+00
      3.067  0.1355E-01  0.1068E+00
      3.186  0.1343E-01  0.1084E+00
      3.304  0.1117E-01  0.1097E+00
      3.423  0.5701E-02  0.1104E+00
      3.542  0.1825E-01  0.1125E+00
      3.660  0.1867E-01  0.1148E+00
      3.779  0.3877E-02  0.1152E+00
      3.898  0.2742E-02  0.1155E+00
      4.016  0.9223E-02  0.1166E+00
      4.135  0.1251E-01  0.1181E+00
      4.254  0.4142E-02  0.1186E+00
      4.372  0.1251E-01  0.1201E+00
      4.491  0.2073E-01  0.1226E+00
      4.610  0.1227E-01  0.1240E+00
      4.728  0.8583E-02  0.1250E+00
      4.847  0.9959E-02  0.1262E+00
      4.966  0.1172E-01  0.1276E+00
      5.084  0.9832E-02  0.1288E+00
      5.203  0.1027E-01  0.1300E+00
      5.322  0.1088E-01  0.1313E+00
      5.440  0.7645E-02  0.1322E+00
      5.559  0.2125E-02  0.1324E+00
      5.678  0.8374E-02  0.1334E+00
      5.796  0.1746E-01  0.1355E+00
      5.915  0.8929E-02  0.1366E+00
      6.034  0.5172E-02  0.1372E+00
      6.152  0.3360E-02  0.1376E+00
      6.271  0.2112E-02  0.1378E+00
      6.389  0.7290E-02  0.1387E+00
      6.508  0.1359E-01  0.1403E+00
      6.627  0.1330E-01  0.1419E+00
      6.745  0.4783E-02  0.1425E+00
      6.864  0.4943E-02  0.1430E+00
      6.983  0.4136E-02  0.1435E+00
      7.101  0.5126E-02  0.1441E+00
      7.220  0.4329E-02  0.1447E+00
      7.339  0.5469E-02  0.1453E+00
      7.457  0.1275E-01  0.1468E+00
      7.576  0.7404E-02  0.1477E+00
      7.695  0.2654E-02  0.1480E+00
      7.813  0.6160E-02  0.1487E+00
      7.932  0.1078E-01  0.1500E+00
      8.051  0.1327E-01  0.1516E+00
      8.169  0.1161E-01  0.1530E+00
      8.288  0.4112E-02  0.1535E+00
      8.407  0.4221E-02  0.1540E+00
      8.525  0.9196E-02  0.1551E+00
      8.644  0.1084E-01  0.1563E+00
      8.763  0.4830E-02  0.1569E+00
      8.881  0.2089E-02  0.1572E+00
      9.000  0.5454E-02  0.1578E+00
      9.119  0.3553E-02  0.1582E+00
      9.237  0.2536E-02  0.1585E+00
      9.356  0.4194E-03  0.1586E+00
      9.474  0.6322E-05  0.1586E+00
      9.593  0.3815E-04  0.1586E+00
      9.712  0.1492E-02  0.1588E+00
      9.830  0.5353E-02  0.1594E+00
      9.949  0.2067E-02  0.1596E+00
     10.068  0.8515E-03  0.1597E+00
     10.186  0.1757E-02  0.1599E+00
     10.305  0.4189E-03  0.1600E+00
     10.424  0.9028E-05  0.1600E+00
     10.542  0.1452E-07  0.1600E+00
     10.661  0.1571E-11  0.1600E+00
     10.780  0.1065E-16  0.1600E+00
     10.898  0.0000E+00  0.1600E+00
     11.017  0.0000E+00  0.1600E+00
     11.136  0.0000E+00  0.1600E+00
     11.254  0.0000E+00  0.1600E+00
     11.373  0.0000E+00  0.1600E+00
     11.492  0.0000E+00  0.1600E+00
     11.610  0.0000E+00  0.1600E+00
     11.729  0.0000E+00  0.1600E+00
