    2    2  100    1
  0.5278472E+02  0.2468816E-09  0.2468816E-09  0.2000000E-08  0.5000000E-15
  1.000000000000000E-004
  CAR 
 unknown system                          
      8     27      8
 
  0.0000000E+00  0.0000000E+00  0.0000000E+00  0.4444444E-02
    1      -22.249190   1.000000
    2      -10.355007   1.000000
    3       -5.787652   1.000000
    4       -5.787651   1.000000
    5        0.520022   0.000000
    6        1.320113   0.000000
    7        1.683335   0.000000
    8        2.592652   0.000000
 
  0.6666667E-01  0.1540732E-18  0.0000000E+00  0.2666667E-01
    1      -22.144326   1.000000
    2      -10.229910   1.000000
    3       -6.211885   1.000000
    4       -6.009072   1.000000
    5        0.662278   0.000000
    6        1.464198   0.000000
    7        1.829197   0.000000
    8        2.737215   0.000000
 
  0.1333333E+00  0.4307485E-17  0.0000000E+00  0.2666667E-01
    1      -21.830368   1.000000
    2       -9.856690   1.000000
    3       -7.338721   1.000000
    4       -6.570263   1.000000
    5        1.089100   0.000000
    6        1.895967   0.000000
    7        2.266805   0.000000
    8        3.170517   0.000000
 
  0.2000000E+00 -0.2920326E-16  0.0000000E+00  0.2666667E-01
    1      -21.309629   1.000000
    2       -9.242385   1.000000
    3       -8.883781   1.000000
    4       -7.272060   1.000000
    5        1.799917   0.000000
    6        2.612930   0.000000
    7        2.996100   0.000000
    8        3.889957   0.000000
 
  0.2666667E+00 -0.6967289E-18  0.0000000E+00  0.2666667E-01
    1      -20.586369   1.000000
    2      -10.612386   1.000000
    3       -8.402161   1.000000
    4       -7.955005   1.000000
    5        2.792481   0.000000
    6        3.564918   0.000000
    7        4.016534   0.000000
    8        4.051409   0.000000
 
  0.3333333E+00 -0.2358276E-16  0.0000000E+00  0.2666667E-01
    1      -19.668257   1.000000
    2      -12.373185   1.000000
    3       -8.523195   1.000000
    4       -7.369118   1.000000
    5        2.136661   0.000000
    6        4.056615   0.000000
    7        4.926893   0.000000
    8        4.932546   0.000000
 
  0.4000000E+00 -0.5840653E-16  0.0000000E+00  0.2666667E-01
    1      -18.571861   1.000000
    2      -14.067174   1.000000
    3       -8.924030   1.000000
    4       -6.229673   1.000000
    5        0.396614   0.000000
    6        4.703053   0.000000
    7        5.637982   0.000000
    8        6.486361   0.000000
 
  0.4666667E+00 -0.2989999E-16  0.0000000E+00  0.2666667E-01
    1      -17.376803   1.000000
    2      -15.570873   1.000000
    3       -9.130272   1.000000
    4       -5.277375   1.000000
    5       -0.875397   0.000000
    6        4.604850   0.000000
    7        7.436658   0.000000
    8        8.305427   0.000000
 
  0.6666667E-01  0.6666667E-01  0.0000000E+00  0.2666667E-01
    1      -21.934905   1.000000
    2       -9.980724   1.000000
    3       -6.935978   1.000000
    4       -6.452448   1.000000
    5        0.946891   0.000000
    6        1.752152   0.000000
    7        2.120945   0.000000
    8        3.026179   0.000000
 
  0.1333333E+00  0.6666667E-01  0.0000000E+00  0.5333333E-01
    1      -21.517546   1.000000
    2       -9.486694   1.000000
    3       -8.182868   1.000000
    4       -7.175035   1.000000
    5        1.516034   0.000000
    6        2.326956   0.000000
    7        2.704463   0.000000
    8        3.603206   0.000000
 
  0.2000000E+00  0.6666667E-01  0.0000000E+00  0.5333333E-01
    1      -20.895546   1.000000
    2       -9.761117   1.000000
    3       -8.758249   1.000000
    4       -7.927830   1.000000
    5        2.368441   0.000000
    6        3.182454   0.000000
    7        3.579599   0.000000
    8        4.450191   0.000000
 
  0.2666667E+00  0.6666667E-01  0.0000000E+00  0.5333333E-01
    1      -20.074727   1.000000
    2      -11.475097   1.000000
    3       -8.584943   1.000000
    4       -7.817267   1.000000
    5        2.971643   0.000000
    6        3.500640   0.000000
    7        4.353951   0.000000
    8        4.745222   0.000000
 
  0.3333333E+00  0.6666667E-01  0.0000000E+00  0.5333333E-01
    1      -19.066081   1.000000
    2      -13.188490   1.000000
    3       -9.084665   1.000000
    4       -6.714697   1.000000
    5        1.193375   0.000000
    6        4.885825   0.000000
    7        5.308346   0.000000
    8        5.768094   0.000000
 
  0.4000000E+00  0.6666667E-01  0.0000000E+00  0.5333333E-01
    1      -17.900574   1.000000
    2      -14.799998   1.000000
    3       -9.394866   1.000000
    4       -5.602715   1.000000
    5       -0.364896   0.000000
    6        5.110499   0.000000
    7        6.607274   0.000000
    8        7.451372   0.000000
 
  0.4666667E+00  0.6666667E-01  0.0000000E+00  0.2666667E-01
    1      -16.951962   1.000000
    2      -15.900882   1.000000
    3       -9.499847   1.000000
    4       -5.016900   1.000000
    5       -1.105677   0.000000
    6        5.059111   0.000000
    7        8.447727   0.000000
    8        8.607483   0.000000
 
  0.1333333E+00  0.1333333E+00  0.0000000E+00  0.2666667E-01
    1      -20.998932   1.000000
    2       -9.281503   1.000000
    3       -8.877751   1.000000
    4       -8.132407   1.000000
    5        2.227222   0.000000
    6        3.043340   0.000000
    7        3.433927   0.000000
    8        4.323002   0.000000
 
  0.2000000E+00  0.1333333E+00  0.0000000E+00  0.5333333E-01
    1      -20.279271   1.000000
    2      -10.672523   1.000000
    3       -9.034174   1.000000
    4       -8.044643   1.000000
    5        3.220358   0.000000
    6        3.514774   0.000000
    7        4.049079   0.000000
    8        4.454949   0.000000
 
  0.2666667E+00  0.1333333E+00  0.0000000E+00  0.5333333E-01
    1      -19.367015   1.000000
    2      -12.258275   1.000000
    3       -9.705538   1.000000
    4       -7.018609   1.000000
    5        1.853729   0.000000
    6        4.490636   0.000000
    7        5.319492   0.000000
    8        5.766532   0.000000
 
  0.3333333E+00  0.1333333E+00  0.0000000E+00  0.5333333E-01
    1      -18.280056   1.000000
    2      -13.864582   1.000000
    3      -10.148393   1.000000
    4       -5.879070   1.000000
    5        0.233130   0.000000
    6        6.014219   0.000000
    7        6.465357   0.000000
    8        6.846265   0.000000
 
  0.4000000E+00  0.1333333E+00  0.0000000E+00  0.5333333E-01
    1      -17.100038   1.000000
    2      -15.321906   1.000000
    3      -10.369579   1.000000
    4       -4.904621   1.000000
    5       -0.999823   0.000000
    6        6.327264   0.000000
    7        7.834855   0.000000
    8        8.515922   0.000000
 
  0.2000000E+00  0.2000000E+00  0.0000000E+00  0.2666667E-01
    1      -19.467976   1.000000
    2      -11.685661   1.000000
    3      -10.200895   1.000000
    4       -7.121883   1.000000
    5        2.124278   0.000000
    6        4.351314   0.000000
    7        5.163129   0.000000
    8        5.621658   0.000000
 
  0.2666667E+00  0.2000000E+00  0.0000000E+00  0.5333333E-01
    1      -18.474811   1.000000
    2      -12.965076   1.000000
    3      -11.018064   1.000000
    4       -6.033123   1.000000
    5        0.654538   0.000000
    6        5.752843   0.000000
    7        6.521400   0.000000
    8        7.078659   0.000000
 
  0.3333333E+00  0.2000000E+00  0.0000000E+00  0.5333333E-01
    1      -17.334281   1.000000
    2      -14.384442   1.000000
    3      -11.444395   1.000000
    4       -4.901655   1.000000
    5       -0.727944   0.000000
    6        7.398143   0.000000
    7        7.933785   0.000000
    8        8.112889   0.000000
 
  0.4000000E+00  0.2000000E+00  0.0000000E+00  0.2666667E-01
    1      -16.412422   1.000000
    2      -15.415079   1.000000
    3      -11.577103   1.000000
    4       -4.255937   1.000000
    5       -1.461924   0.000000
    6        8.030645   0.000000
    7        8.566156   0.000000
    8        9.144357   0.000000
 
  0.2666667E+00  0.2666667E+00  0.0000000E+00  0.2666667E-01
    1      -17.421487   1.000000
    2      -13.748044   1.000000
    3      -12.135246   1.000000
    4       -4.914186   1.000000
    5       -0.586152   0.000000
    6        7.266322   0.000000
    7        7.701072   0.000000
    8        8.678947   0.000000
 
  0.3333333E+00  0.2666667E+00  0.0000000E+00  0.5333333E-01
    1      -16.289138   1.000000
    2      -14.789461   1.000000
    3      -12.674545   1.000000
    4       -3.838858   1.000000
    5       -1.716545   0.000000
    6        8.049260   0.000000
    7        8.948763   0.000000
    8        9.779208   0.000000
 
  0.3333333E+00  0.3333333E+00  0.0000000E+00  0.8888889E-02
    1      -15.338851   1.000000
    2      -15.338851   1.000000
    3      -13.282433   1.000000
    4       -2.758433   0.500000
    5       -2.758433   0.500000
    6        7.856355   0.000000
    7       10.110899   0.000000
    8       10.110901   0.000000
