       N       E                     dE             d eps       ncg     rms          rms(c)
DAV:   1     0.597428333113E+02    0.59743E+02   -0.33283E+03   440   0.715E+02
DAV:   2    -0.147325318981E+02   -0.74475E+02   -0.62136E+02   632   0.129E+02
DAV:   3    -0.196695247933E+02   -0.49370E+01   -0.49360E+01   616   0.533E+01
DAV:   4    -0.197083029613E+02   -0.38778E-01   -0.38778E-01   704   0.479E+00
DAV:   5    -0.197083768085E+02   -0.73847E-04   -0.73848E-04   600   0.208E-01    0.628E+00
DAV:   6    -0.188051863845E+02    0.90319E+00   -0.87696E-01   568   0.674E+00    0.370E+00
DAV:   7    -0.184561690192E+02    0.34902E+00   -0.11716E+00   696   0.764E+00    0.969E-01
DAV:   8    -0.184477704859E+02    0.83985E-02   -0.11854E-02   704   0.103E+00    0.120E-01
DAV:   9    -0.184468095206E+02    0.96097E-03   -0.50765E-04   632   0.146E-01    0.821E-02
DAV:  10    -0.184441983486E+02    0.26112E-02   -0.42306E-03   608   0.320E-01    0.494E-02
DAV:  11    -0.184450127409E+02   -0.81439E-03   -0.15725E-04   512   0.784E-02    0.656E-02
DAV:  12    -0.184452748175E+02   -0.26208E-03   -0.33720E-05   520   0.426E-02    0.167E-02
DAV:  13    -0.184461606378E+02   -0.88582E-03   -0.16412E-04   600   0.493E-02    0.928E-03
DAV:  14    -0.184462147102E+02   -0.54072E-04   -0.20787E-06   616   0.648E-03    0.351E-03
DAV:  15    -0.184463033793E+02   -0.88669E-04   -0.10190E-05   512   0.116E-02    0.200E-03
DAV:  16    -0.184463085186E+02   -0.51393E-05   -0.11905E-07   624   0.244E-03    0.995E-04
DAV:  17    -0.184463130206E+02   -0.45020E-05   -0.31169E-07   480   0.229E-03    0.532E-04
DAV:  18    -0.184463166763E+02   -0.36557E-05   -0.22121E-08   504   0.751E-04    0.252E-04
DAV:  19    -0.184463171254E+02   -0.44913E-06   -0.17974E-09   568   0.215E-04    0.103E-04
DAV:  20    -0.184463175395E+02   -0.41410E-06   -0.38855E-09   536   0.249E-04    0.131E-05
DAV:  21    -0.184463175581E+02   -0.18599E-07   -0.47554E-11   648   0.321E-05    0.629E-06
DAV:  22    -0.184463175682E+02   -0.10056E-07   -0.26123E-11   488   0.280E-05    0.543E-06
DAV:  23    -0.184463175685E+02   -0.30093E-09   -0.87772E-13   688   0.275E-06
   1 F= -.18446318E+02 E0= -.18445816E+02  d E =-.184463E+02
       N       E                     dE             d eps       ncg     rms          rms(c)
DAV:   1    -0.184462969814E+02    0.20587E-04   -0.14269E-03   448   0.402E-01    0.257E-02
DAV:   2    -0.184462892667E+02    0.77147E-05   -0.14689E-05   488   0.375E-02    0.168E-02
DAV:   3    -0.184462841776E+02    0.50891E-05   -0.69960E-06   528   0.210E-02    0.280E-03
DAV:   4    -0.184462841415E+02    0.36096E-07   -0.15564E-07   632   0.333E-03    0.114E-03
DAV:   5    -0.184462840643E+02    0.77168E-07   -0.56616E-08   560   0.174E-03    0.515E-04
DAV:   6    -0.184462841771E+02   -0.11282E-06   -0.85317E-10   472   0.246E-04    0.320E-04
DAV:   7    -0.184462847748E+02   -0.59767E-06   -0.51819E-08   432   0.892E-04    0.132E-04
DAV:   8    -0.184462850024E+02   -0.22759E-06   -0.30222E-09   568   0.226E-04    0.919E-05
DAV:   9    -0.184462852435E+02   -0.24112E-06   -0.32843E-09   544   0.267E-04    0.658E-05
DAV:  10    -0.184462853173E+02   -0.73732E-07   -0.76570E-10   568   0.164E-04    0.157E-05
DAV:  11    -0.184462853357E+02   -0.18451E-07   -0.38851E-11   592   0.351E-05    0.895E-06
DAV:  12    -0.184462853504E+02   -0.14699E-07   -0.10616E-10   528   0.442E-05    0.690E-06
DAV:  13    -0.184462853530E+02   -0.26300E-08   -0.31549E-11   480   0.207E-05
   2 F= -.18446285E+02 E0= -.18445784E+02  d E =0.322154E-04
       N       E                     dE             d eps       ncg     rms          rms(c)
DAV:   1    -0.184463333245E+02   -0.47974E-04   -0.66625E-04   464   0.275E-01    0.177E-02
DAV:   2    -0.184463289901E+02    0.43344E-05   -0.65986E-06   480   0.248E-02    0.115E-02
DAV:   3    -0.184463250855E+02    0.39046E-05   -0.32812E-06   520   0.143E-02    0.187E-03
DAV:   4    -0.184463252445E+02   -0.15894E-06   -0.69746E-08   648   0.226E-03    0.837E-04
DAV:   5    -0.184463253678E+02   -0.12330E-06   -0.29977E-08   512   0.123E-03    0.406E-04
DAV:   6    -0.184463254448E+02   -0.77039E-07   -0.70130E-10   520   0.194E-04    0.256E-04
DAV:   7    -0.184463259219E+02   -0.47712E-06   -0.46239E-08   496   0.783E-04    0.115E-04
DAV:   8    -0.184463259925E+02   -0.70542E-07   -0.20248E-09   528   0.177E-04    0.930E-05
DAV:   9    -0.184463260608E+02   -0.68344E-07   -0.33941E-09   496   0.253E-04    0.496E-05
DAV:  10    -0.184463260877E+02   -0.26860E-07   -0.47922E-10   568   0.124E-04    0.126E-05
DAV:  11    -0.184463260891E+02   -0.14694E-08   -0.88047E-12   656   0.206E-05
   3 F= -.18446326E+02 E0= -.18445825E+02  d E =-.852068E-05
       N       E                     dE             d eps       ncg     rms          rms(c)
DAV:   1    -0.184463261065E+02   -0.18779E-07   -0.18240E-07   544   0.454E-03    0.293E-04
DAV:   2    -0.184463261002E+02    0.62111E-08   -0.16594E-09   464   0.382E-04    0.188E-04
DAV:   3    -0.184463260893E+02    0.10915E-07   -0.90556E-10   496   0.240E-04    0.308E-05
DAV:   4    -0.184463260902E+02   -0.83912E-09   -0.20691E-11   592   0.392E-05    0.156E-05
DAV:   5    -0.184463260901E+02    0.83105E-10   -0.10760E-11   496   0.221E-05    0.898E-06
DAV:   6    -0.184463260898E+02    0.25830E-09   -0.70225E-14   496   0.361E-06
   4 F= -.18446326E+02 E0= -.18445825E+02  d E =-.852136E-05
