 vasp.5.4.4.18Apr17-6-g9f103f2a35 (build Dec 24 2020 13:49:33) complex          
  
 executed on             LinuxIFC date 2022.01.07  14:21:00
 running on   12 total cores
 distrk:  each k-point on   12 cores,    1 groups
 distr:  one band on NCORES_PER_BAND=   3 cores,    4 groups


--------------------------------------------------------------------------------------------------------


 INCAR:
 POTCAR:    PAW_PBE C 08Apr2002                   
 POTCAR:    PAW_PBE C 08Apr2002                   
   VRHFIN =C: s2p2                                                              
   LEXCH  = PE                                                                  
   EATOM  =   147.1560 eV,   10.8157 Ry                                         
                                                                                
   TITEL  = PAW_PBE C 08Apr2002                                                 
   LULTRA =        F    use ultrasoft PP ?                                      
   IUNSCR =        1    unscreen: 0-lin 1-nonlin 2-no                           
   RPACOR =    1.200    partial core radius                                     
   POMASS =   12.011; ZVAL   =    4.000    mass and valenz                      
   RCORE  =    1.500    outmost cutoff radius                                   
   RWIGS  =    1.630; RWIGS  =    0.863    wigner-seitz radius (au A)           
   ENMAX  =  400.000; ENMIN  =  300.000 eV                                      
   ICORE  =        2    local potential                                         
   LCOR   =        T    correct aug charges                                     
   LPAW   =        T    paw PP                                                  
   EAUG   =  644.873                                                            
   DEXC   =    0.000                                                            
   RMAX   =    1.529    core radius for proj-oper                               
   RAUG   =    1.300    factor for augmentation sphere                          
   RDEP   =    1.501    radius for radial grids                                 
   RDEPT  =    1.300    core radius for aug-charge                              
                                                                                
   Atomic configuration                                                         
    4 entries                                                                   
     n  l   j            E        occ.                                          
     1  0  0.50      -273.3789   2.0000                                         
     2  0  0.50       -13.7508   2.0000                                         
     2  1  0.50        -5.2854   2.0000                                         
     3  2  1.50        -5.4423   0.0000                                         
   Description                                                                  
     l       E           TYP  RCUT    TYP  RCUT                                 
     0    -13.7508458     23  1.200                                             
     0     -8.2022199     23  1.200                                             
     1     -5.2854383     23  1.500                                             
     1     34.0145650     23  1.500                                             
     2     -5.4423304      7  1.500                                             
  local pseudopotential read in
  partial core-charges read in
  partial kinetic energy density read in
  atomic valenz-charges read in
  non local Contribution for L=           0  read in
    real space projection operators read in
  non local Contribution for L=           0  read in
    real space projection operators read in
  non local Contribution for L=           1  read in
    real space projection operators read in
  non local Contribution for L=           1  read in
    real space projection operators read in
    PAW grid and wavefunctions read in
 
   number of l-projection  operators is LMAX  =           4
   number of lm-projection operators is LMMAX =           8
 
  PAW_PBE C 08Apr2002                   :
 energy of atom  1       EATOM= -147.1560
 kinetic energy error for atom=    0.0071 (will be added to EATOM!!)
 
 
 POSCAR: generated by phonopy                    
  positions in direct lattice
  No initial velocities read in
 exchange correlation table for  LEXCH =        8
   RHO(1)=    0.500       N(1)  =     2000
   RHO(2)=  100.500       N(2)  =     4000

 VTST: version 3.2, (02/03/18)

 CHAIN: initializing optimizer
 
 OPT: Using VASP Conjugate-Gradient optimizer
 CHAIN: Read ICHAIN            0
 
 POSCAR: generated by phonopy                    
  positions in direct lattice
  No initial velocities read in
 


--------------------------------------------------------------------------------------------------------


 ion  position               nearest neighbor table
   1  0.667  0.333  0.500-   2 1.43   2 1.43   2 1.43
   2  0.333  0.667  0.500-   1 1.43   1 1.43   1 1.43
 
  LATTYP: Found a hexagonal cell.
 ALAT       =     2.4688163987
 C/A-ratio  =     8.1010479395
  
  Lattice vectors:
  
 A1 = (   2.4688163987,   0.0000000000,   0.0000000000)
 A2 = (  -1.2344081994,   2.1380577186,   0.0000000000)
 A3 = (   0.0000000000,   0.0000000000,  20.0000000000)


Analysis of symmetry for initial positions (statically):
=====================================================================
 Subroutine PRICEL returns:
 Original cell was already a primitive cell.
 

 Routine SETGRP: Setting up the symmetry group for a 
 hexagonal supercell.


 Subroutine GETGRP returns: Found 24 space group operations
 (whereof 24 operations were pure point group operations)
 out of a pool of 24 trial point group operations.


The static configuration has the point symmetry D_6h.


Analysis of symmetry for dynamics (positions and initial velocities):
=====================================================================
 Subroutine PRICEL returns:
 Original cell was already a primitive cell.
 

 Routine SETGRP: Setting up the symmetry group for a 
 hexagonal supercell.


 Subroutine GETGRP returns: Found 24 space group operations
 (whereof 24 operations were pure point group operations)
 out of a pool of 24 trial point group operations.


The dynamic configuration has the point symmetry D_6h.


 Subroutine INISYM returns: Found 24 space group operations
 (whereof 24 operations are pure point group operations),
 and found     1 'primitive' translations

 
 
 KPOINTS: KPT-Resolved Value to Generate K-Mesh: 0

Automatic generation of k-mesh.
Space group operators:
 irot       det(A)        alpha          n_x          n_y          n_z        tau_x        tau_y        tau_z
    1     1.000000     0.000000     1.000000     0.000000     0.000000     0.000000     0.000000     0.000000
    2    -1.000000     0.000000     1.000000     0.000000     0.000000     0.000000     0.000000     0.000000
    3     1.000000    60.000000     0.000000     0.000000    -1.000000     0.000000     0.000000     0.000000
    4    -1.000000    60.000000     0.000000     0.000000    -1.000000     0.000000     0.000000     0.000000
    5     1.000000   120.000000     0.000000     0.000000    -1.000000     0.000000     0.000000     0.000000
    6    -1.000000   120.000000     0.000000     0.000000    -1.000000     0.000000     0.000000     0.000000
    7     1.000000   180.000000     0.000000     0.000000     1.000000     0.000000     0.000000     0.000000
    8    -1.000000   180.000000     0.000000     0.000000     1.000000     0.000000     0.000000     0.000000
    9     1.000000   120.000000     0.000000     0.000000     1.000000     0.000000     0.000000     0.000000
   10    -1.000000   120.000000     0.000000     0.000000     1.000000     0.000000     0.000000     0.000000
   11     1.000000    60.000000     0.000000     0.000000     1.000000     0.000000     0.000000     0.000000
   12    -1.000000    60.000000     0.000000     0.000000     1.000000     0.000000     0.000000     0.000000
   13     1.000000   180.000000     1.000000     0.000000     0.000000     0.000000     0.000000     0.000000
   14    -1.000000   180.000000     1.000000     0.000000     0.000000     0.000000     0.000000     0.000000
   15     1.000000   180.000000     0.866025    -0.500000     0.000000     0.000000     0.000000     0.000000
   16    -1.000000   180.000000     0.866025    -0.500000     0.000000     0.000000     0.000000     0.000000
   17     1.000000   180.000000     0.500000    -0.866025     0.000000     0.000000     0.000000     0.000000
   18    -1.000000   180.000000     0.500000    -0.866025     0.000000     0.000000     0.000000     0.000000
   19     1.000000   180.000000     0.000000     1.000000     0.000000     0.000000     0.000000     0.000000
   20    -1.000000   180.000000     0.000000     1.000000     0.000000     0.000000     0.000000     0.000000
   21     1.000000   180.000000    -0.500000    -0.866025     0.000000     0.000000     0.000000     0.000000
   22    -1.000000   180.000000    -0.500000    -0.866025     0.000000     0.000000     0.000000     0.000000
   23     1.000000   180.000000     0.866025     0.500000     0.000000     0.000000     0.000000     0.000000
   24    -1.000000   180.000000     0.866025     0.500000     0.000000     0.000000     0.000000     0.000000
 
 Subroutine IBZKPT returns following result:
 ===========================================
 
 Found     27 irreducible k-points:
 
 Following reciprocal coordinates:
            Coordinates               Weight
  0.000000  0.000000  0.000000      1.000000
  0.066667  0.000000  0.000000      6.000000
  0.133333  0.000000  0.000000      6.000000
  0.200000 -0.000000  0.000000      6.000000
  0.266667 -0.000000  0.000000      6.000000
  0.333333 -0.000000  0.000000      6.000000
  0.400000 -0.000000  0.000000      6.000000
  0.466667 -0.000000  0.000000      6.000000
  0.066667  0.066667  0.000000      6.000000
  0.133333  0.066667  0.000000     12.000000
  0.200000  0.066667  0.000000     12.000000
  0.266667  0.066667  0.000000     12.000000
  0.333333  0.066667  0.000000     12.000000
  0.400000  0.066667  0.000000     12.000000
  0.466667  0.066667  0.000000      6.000000
  0.133333  0.133333  0.000000      6.000000
  0.200000  0.133333  0.000000     12.000000
  0.266667  0.133333  0.000000     12.000000
  0.333333  0.133333  0.000000     12.000000
  0.400000  0.133333  0.000000     12.000000
  0.200000  0.200000  0.000000      6.000000
  0.266667  0.200000  0.000000     12.000000
  0.333333  0.200000  0.000000     12.000000
  0.400000  0.200000  0.000000      6.000000
  0.266667  0.266667  0.000000      6.000000
  0.333333  0.266667  0.000000     12.000000
  0.333333  0.333333  0.000000      2.000000
 
 Following cartesian coordinates:
            Coordinates               Weight
  0.000000  0.000000  0.000000      1.000000
  0.027003  0.015590  0.000000      6.000000
  0.054007  0.031181  0.000000      6.000000
  0.081010  0.046771  0.000000      6.000000
  0.108014  0.062362  0.000000      6.000000
  0.135017  0.077952  0.000000      6.000000
  0.162021  0.093543  0.000000      6.000000
  0.189024  0.109133  0.000000      6.000000
  0.027003  0.046771  0.000000      6.000000
  0.054007  0.062362  0.000000     12.000000
  0.081010  0.077952  0.000000     12.000000
  0.108014  0.093543  0.000000     12.000000
  0.135017  0.109133  0.000000     12.000000
  0.162021  0.124724  0.000000     12.000000
  0.189024  0.140314  0.000000      6.000000
  0.054007  0.093543  0.000000      6.000000
  0.081010  0.109133  0.000000     12.000000
  0.108014  0.124724  0.000000     12.000000
  0.135017  0.140314  0.000000     12.000000
  0.162021  0.155905  0.000000     12.000000
  0.081010  0.140314  0.000000      6.000000
  0.108014  0.155905  0.000000     12.000000
  0.135017  0.171495  0.000000     12.000000
  0.162021  0.187086  0.000000      6.000000
  0.108014  0.187086  0.000000      6.000000
  0.135017  0.202676  0.000000     12.000000
  0.135017  0.233857  0.000000      2.000000
 


--------------------------------------------------------------------------------------------------------




 Dimension of arrays:
   k-points           NKPTS =     27   k-points in BZ     NKDIM =     27   number of bands    NBANDS=      8
   number of dos      NEDOS =    301   number of ions     NIONS =      2
   non local maximal  LDIM  =      4   non local SUM 2l+1 LMDIM =      8
   total plane-waves  NPLWV =  48600
   max r-space proj   IRMAX =      1   max aug-charges    IRDMAX=  43656
   dimension x,y,z NGX =    18 NGY =   18 NGZ =  150
   dimension x,y,z NGXF=    36 NGYF=   36 NGZF=  300
   support grid    NGXF=    72 NGYF=   72 NGZF=  600
   ions per type =               2
   NGX,Y,Z   is equivalent  to a cutoff of  12.12, 12.12, 12.47 a.u.
   NGXF,Y,Z  is equivalent  to a cutoff of  24.24, 24.24, 24.94 a.u.

 SYSTEM =  unknown system                          
 POSCAR =  generated by phonopy                    

 Startparameter for this run:
   NWRITE =      2    write-flag & timer
   PREC   = accura    normal or accurate (medium, high low for compatibility)
   ISTART =      0    job   : 0-new  1-cont  2-samecut
   ICHARG =      2    charge: 1-file 2-atom 10-const
   ISPIN  =      1    spin polarized calculation?
   LNONCOLLINEAR =      F non collinear calculations
   LSORBIT =      F    spin-orbit coupling
   INIWAV =      1    electr: 0-lowe 1-rand  2-diag
   LASPH  =      F    aspherical Exc in radial PAW
   METAGGA=      F    non-selfconsistent MetaGGA calc.

 Electronic Relaxation 1
   ENCUT  =  520.0 eV  38.22 Ry    6.18 a.u.   4.59  4.59 37.19*2*pi/ulx,y,z
   ENINI  =  520.0     initial cutoff
   ENAUG  =  644.9 eV  augmentation charge cutoff
   NELM   =     60;   NELMIN=  6; NELMDL=  0     # of ELM steps 
   EDIFF  = 0.1E-07   stopping-criterion for ELM
   LREAL  =      F    real-space projection
   NLSPLINE    = F    spline interpolate recip. space projectors
   LCOMPAT=      F    compatible to vasp.4.4
   GGA_COMPAT  = T    GGA compatible to vasp.4.4-vasp.4.6
   LMAXPAW     = -100 max onsite density
   LMAXMIX     =    2 max onsite mixed and CHGCAR
   VOSKOWN=      0    Vosko Wilk Nusair interpolation
   ROPT   =    0.00000
 Ionic relaxation
   EDIFFG = -.1E-03   stopping-criterion for IOM
   NSW    =    100    number of steps for IOM
   NBLOCK =      1;   KBLOCK =    100    inner block; outer block 
   IBRION =      2    ionic relax: 0-MD 1-quasi-New 2-CG
   NFREE  =      1    steps in history (QN), initial steepest desc. (CG)
   ISIF   =      3    stress and relaxation
   IWAVPR =     11    prediction:  0-non 1-charg 2-wave 3-comb
   ISYM   =      2    0-nonsym 1-usesym 2-fastsym
   LCORR  =      T    Harris-Foulkes like correction to forces

   POTIM  = 0.5000    time-step for ionic-motion
   TEIN   =    0.0    initial temperature
   TEBEG  =    0.0;   TEEND  =   0.0 temperature during run
   SMASS  =  -3.00    Nose mass-parameter (am)
   estimated Nose-frequenzy (Omega)   =  0.10E-29 period in steps =****** mass=  -0.139E-27a.u.
   SCALEE = 1.0000    scale energy and forces
   NPACO  =    256;   APACO  = 16.0  distance and # of slots for P.C.
   PSTRESS=    0.0 pullay stress

  Mass of Ions in am
   POMASS =  12.01
  Ionic Valenz
   ZVAL   =   4.00
  Atomic Wigner-Seitz radii
   RWIGS  =  -1.00
  virtual crystal weights 
   VCA    =   1.00
   NELECT =       8.0000    total number of electrons
   NUPDOWN=      -1.0000    fix difference up-down

 DOS related values:
   EMIN   =  10.00;   EMAX   =-10.00  energy-range for DOS
   EFERMI =   0.00
   ISMEAR =     0;   SIGMA  =   0.10  broadening in eV -4-tet -1-fermi 0-gaus

 Electronic relaxation 2 (details)
   IALGO  =     38    algorithm
   LDIAG  =      T    sub-space diagonalisation (order eigenvalues)
   LSUBROT=      F    optimize rotation matrix (better conditioning)
   TURBO    =      0    0=normal 1=particle mesh
   IRESTART =      0    0=no restart 2=restart with 2 vectors
   NREBOOT  =      0    no. of reboots
   NMIN     =      0    reboot dimension
   EREF     =   0.00    reference energy to select bands
   IMIX   =      4    mixing-type and parameters
     AMIX     =   0.40;   BMIX     =  1.00
     AMIX_MAG =   1.60;   BMIX_MAG =  1.00
     AMIN     =   0.10
     WC   =   100.;   INIMIX=   1;  MIXPRE=   1;  MAXMIX= -45

 Intra band minimization:
   WEIMIN = 0.0010     energy-eigenvalue tresh-hold
   EBREAK =  0.31E-09  absolut break condition
   DEPER  =   0.30     relativ break condition  

   TIME   =   0.40     timestep for ELM

  volume/ion in A,a.u.               =      52.78       356.21
  Fermi-wavevector in a.u.,A,eV,Ry     =   0.692775  1.309155  6.529938  0.479937
  Thomas-Fermi vector in A             =   1.774802
 
 Write flags
   LWAVE        =      T    write WAVECAR
   LDOWNSAMPLE  =      F    k-point downsampling of WAVECAR
   LCHARG       =      T    write CHGCAR
   LVTOT        =      F    write LOCPOT, total local potential
   LVHAR        =      F    write LOCPOT, Hartree potential only
   LELF         =      F    write electronic localiz. function (ELF)
   LORBIT       =      0    0 simple, 1 ext, 2 COOP (PROOUT), +10 PAW based schemes


 Dipole corrections
   LMONO  =      F    monopole corrections only (constant potential shift)
   LDIPOL =      F    correct potential (dipole corrections)
   IDIPOL =      0    1-x, 2-y, 3-z, 4-all directions 
   EPSILON=  1.0000000 bulk dielectric constant

 Exchange correlation treatment:
   GGA     =    --    GGA type
   LEXCH   =     8    internal setting for exchange type
   VOSKOWN=      0    Vosko Wilk Nusair interpolation
   LHFCALC =     F    Hartree Fock is set to
   LHFONE  =     F    Hartree Fock one center treatment
   AEXX    =    0.0000 exact exchange contribution

 Linear response parameters
   LEPSILON=     F    determine dielectric tensor
   LRPA    =     F    only Hartree local field effects (RPA)
   LNABLA  =     F    use nabla operator in PAW spheres
   LVEL    =     F    velocity operator in full k-point grid
   LINTERFAST=   F  fast interpolation
   KINTER  =     0    interpolate to denser k-point grid
   CSHIFT  =0.1000    complex shift for real part using Kramers Kronig
   OMEGAMAX=  -1.0    maximum frequency
   DEG_THRESHOLD= 0.2000000E-02 threshold for treating states as degnerate
   RTIME   =   -0.100 relaxation time in fs
  (WPLASMAI=    0.000 imaginary part of plasma frequency in eV, 0.658/RTIME)
   DFIELD  = 0.0000000 0.0000000 0.0000000 field for delta impulse in time
 
 Orbital magnetization related:
   ORBITALMAG=     F  switch on orbital magnetization
   LCHIMAG   =     F  perturbation theory with respect to B field
   DQ        =  0.001000  dq finite difference perturbation B field
   LLRAUG    =     F  two centre corrections for induced B field



--------------------------------------------------------------------------------------------------------


 conjugate gradient relaxation of ions
 charge density and potential will be updated during run
 non-spin polarized calculation
 Variant of blocked Davidson
 Davidson routine will perform the subspace rotation
 perform sub-space diagonalisation
    after iterative eigenvector-optimisation
 modified Broyden-mixing scheme, WC =      100.0
 initial mixing is a Kerker type mixing with AMIX =  0.4000 and BMIX =      1.0000
 Hartree-type preconditioning will be used
 using additional bands            4
 reciprocal scheme for non local part
 use partial core corrections
 calculate Harris-corrections to forces 
   (improved forces if not selfconsistent)
 use gradient corrections 
 use of overlap-Matrix (Vanderbilt PP)
 Gauss-broadening in eV      SIGMA  =   0.10


--------------------------------------------------------------------------------------------------------


  energy-cutoff  :      520.00
  volume of cell :      105.57
      direct lattice vectors                 reciprocal lattice vectors
     2.468816399  0.000000000  0.000000000     0.405052397  0.233857110  0.000000000
    -1.234408199  2.138057719  0.000000000     0.000000000  0.467714221  0.000000000
     0.000000000  0.000000000 20.000000000     0.000000000  0.000000000  0.050000000

  length of vectors
     2.468816399  2.468816399 20.000000000     0.467714221  0.467714221  0.050000000


 
 k-points in units of 2pi/SCALE and weight: KPT-Resolved Value to Generate K-Mesh: 0
   0.00000000  0.00000000  0.00000000       0.004
   0.02700349  0.01559047  0.00000000       0.027
   0.05400699  0.03118095  0.00000000       0.027
   0.08101048  0.04677142  0.00000000       0.027
   0.10801397  0.06236190  0.00000000       0.027
   0.13501747  0.07795237  0.00000000       0.027
   0.16202096  0.09354284  0.00000000       0.027
   0.18902445  0.10913332  0.00000000       0.027
   0.02700349  0.04677142  0.00000000       0.027
   0.05400699  0.06236190  0.00000000       0.053
   0.08101048  0.07795237  0.00000000       0.053
   0.10801397  0.09354284  0.00000000       0.053
   0.13501747  0.10913332  0.00000000       0.053
   0.16202096  0.12472379  0.00000000       0.053
   0.18902445  0.14031427  0.00000000       0.027
   0.05400699  0.09354284  0.00000000       0.027
   0.08101048  0.10913332  0.00000000       0.053
   0.10801397  0.12472379  0.00000000       0.053
   0.13501747  0.14031427  0.00000000       0.053
   0.16202096  0.15590474  0.00000000       0.053
   0.08101048  0.14031427  0.00000000       0.027
   0.10801397  0.15590474  0.00000000       0.053
   0.13501747  0.17149521  0.00000000       0.053
   0.16202096  0.18708569  0.00000000       0.027
   0.10801397  0.18708569  0.00000000       0.027
   0.13501747  0.20267616  0.00000000       0.053
   0.13501747  0.23385711  0.00000000       0.009
 
 k-points in reciprocal lattice and weights: KPT-Resolved Value to Generate K-Mesh: 0
   0.00000000  0.00000000  0.00000000       0.004
   0.06666667  0.00000000  0.00000000       0.027
   0.13333333  0.00000000  0.00000000       0.027
   0.20000000 -0.00000000  0.00000000       0.027
   0.26666667 -0.00000000  0.00000000       0.027
   0.33333333 -0.00000000  0.00000000       0.027
   0.40000000 -0.00000000  0.00000000       0.027
   0.46666667 -0.00000000  0.00000000       0.027
   0.06666667  0.06666667  0.00000000       0.027
   0.13333333  0.06666667  0.00000000       0.053
   0.20000000  0.06666667  0.00000000       0.053
   0.26666667  0.06666667  0.00000000       0.053
   0.33333333  0.06666667  0.00000000       0.053
   0.40000000  0.06666667  0.00000000       0.053
   0.46666667  0.06666667  0.00000000       0.027
   0.13333333  0.13333333  0.00000000       0.027
   0.20000000  0.13333333  0.00000000       0.053
   0.26666667  0.13333333  0.00000000       0.053
   0.33333333  0.13333333  0.00000000       0.053
   0.40000000  0.13333333  0.00000000       0.053
   0.20000000  0.20000000  0.00000000       0.027
   0.26666667  0.20000000  0.00000000       0.053
   0.33333333  0.20000000  0.00000000       0.053
   0.40000000  0.20000000  0.00000000       0.027
   0.26666667  0.26666667  0.00000000       0.027
   0.33333333  0.26666667  0.00000000       0.053
   0.33333333  0.33333333  0.00000000       0.009
 
 position of ions in fractional coordinates (direct lattice) 
   0.66666667  0.33333333  0.50000000
   0.33333333  0.66666667  0.50000000
 
 position of ions in cartesian coordinates  (Angst):
   1.23440820  0.71268591 10.00000000
   0.00000000  1.42537181 10.00000000
 


--------------------------------------------------------------------------------------------------------


 k-point  1 :   0.0000 0.0000 0.0000  plane waves:    2841
 k-point  2 :   0.0667 0.0000 0.0000  plane waves:    2874
 k-point  3 :   0.1333 0.0000 0.0000  plane waves:    2874
 k-point  4 :   0.2000-0.0000 0.0000  plane waves:    2888
 k-point  5 :   0.2667-0.0000 0.0000  plane waves:    2876
 k-point  6 :   0.3333-0.0000 0.0000  plane waves:    2862
 k-point  7 :   0.4000-0.0000 0.0000  plane waves:    2818
 k-point  8 :   0.4667-0.0000 0.0000  plane waves:    2838
 k-point  9 :   0.0667 0.0667 0.0000  plane waves:    2881
 k-point 10 :   0.1333 0.0667 0.0000  plane waves:    2872
 k-point 11 :   0.2000 0.0667 0.0000  plane waves:    2870
 k-point 12 :   0.2667 0.0667 0.0000  plane waves:    2864
 k-point 13 :   0.3333 0.0667 0.0000  plane waves:    2839
 k-point 14 :   0.4000 0.0667 0.0000  plane waves:    2821
 k-point 15 :   0.4667 0.0667 0.0000  plane waves:    2836
 k-point 16 :   0.1333 0.1333 0.0000  plane waves:    2867
 k-point 17 :   0.2000 0.1333 0.0000  plane waves:    2853
 k-point 18 :   0.2667 0.1333 0.0000  plane waves:    2850
 k-point 19 :   0.3333 0.1333 0.0000  plane waves:    2831
 k-point 20 :   0.4000 0.1333 0.0000  plane waves:    2823
 k-point 21 :   0.2000 0.2000 0.0000  plane waves:    2835
 k-point 22 :   0.2667 0.2000 0.0000  plane waves:    2815
 k-point 23 :   0.3333 0.2000 0.0000  plane waves:    2821
 k-point 24 :   0.4000 0.2000 0.0000  plane waves:    2800
 k-point 25 :   0.2667 0.2667 0.0000  plane waves:    2827
 k-point 26 :   0.3333 0.2667 0.0000  plane waves:    2802
 k-point 27 :   0.3333 0.3333 0.0000  plane waves:    2790

 maximum and minimum number of plane-waves per node :       977      922

 maximum number of plane-waves:      2888
 maximum index in each direction: 
   IXMAX=    4   IYMAX=    4   IZMAX=   37
   IXMIN=   -5   IYMIN=   -4   IZMIN=  -37


 parallel 3D FFT for wavefunctions:
    minimum data exchange during FFTs selected (reduces bandwidth)
 parallel 3D FFT for charge:
    minimum data exchange during FFTs selected (reduces bandwidth)


 total amount of memory used by VASP MPI-rank0    39952. kBytes
=======================================================================

   base      :      30000. kBytes
   nonl-proj :       1689. kBytes
   fftplans  :       5213. kBytes
   grid      :       2211. kBytes
   one-center:          3. kBytes
   wavefun   :        836. kBytes
 
     INWAV:  cpu time    0.0000: real time    0.0000
 Broyden mixing: mesh for mixing (old mesh)
   NGX =  9   NGY =  9   NGZ = 75
  (NGX  = 36   NGY  = 36   NGZ  =300)
  gives a total of   6075 points

 initial charge density was supplied:
 charge density of overlapping atoms calculated
 number of electron       8.0000000 magnetization 
 keeping initial charge density in first step


--------------------------------------------------------------------------------------------------------


 Maximum index for augmentation-charges         3339 (set IRDMAX)


--------------------------------------------------------------------------------------------------------


 First call to EWALD:  gamma=   0.375
 Maximum number of real-space cells 5x 5x 1
 Maximum number of reciprocal cells 2x 2x10

    FEWALD:  cpu time    0.0011: real time    0.0011


--------------------------------------- Iteration      1(   1)  ---------------------------------------


    POTLOK:  cpu time    0.0117: real time    0.0491
    SETDIJ:  cpu time    0.0097: real time    0.0097
     EDDAV:  cpu time    0.0640: real time    0.0643
       DOS:  cpu time    0.0002: real time    0.0002
    --------------------------------------------
      LOOP:  cpu time    0.0856: real time    0.1234

 eigenvalue-minimisations  :   440
 total energy-change (2. order) : 0.5974283E+02  (-0.3328298E+03)
 number of electron       8.0000000 magnetization 
 augmentation part        8.0000000 magnetization 

 Free energy of the ion-electron system (eV)
  ---------------------------------------------------
  alpha Z        PSCENC =         3.11251880
  Ewald energy   TEWEN  =      1291.20578142
  -Hartree energ DENC   =     -1504.01395233
  -exchange      EXHF   =         0.00000000
  -V(xc)+E(xc)   XCENC  =        26.34443178
  PAW double counting   =       217.04409276     -218.18290438
  entropy T*S    EENTRO =        -0.00470836
  eigenvalues    EBANDS =       -50.06021300
  atomic energy  EATOM  =       294.29778662
  Solvation  Ediel_sol  =         0.00000000
  ---------------------------------------------------
  free energy    TOTEN  =        59.74283331 eV

  energy without entropy =       59.74754167  energy(sigma->0) =       59.74518749


--------------------------------------------------------------------------------------------------------




--------------------------------------- Iteration      1(   2)  ---------------------------------------


     EDDAV:  cpu time    0.0832: real time    0.0839
       DOS:  cpu time    0.0002: real time    0.0002
    --------------------------------------------
      LOOP:  cpu time    0.0834: real time    0.0841

 eigenvalue-minimisations  :   632
 total energy-change (2. order) :-0.7447537E+02  (-0.6213645E+02)
 number of electron       8.0000000 magnetization 
 augmentation part        8.0000000 magnetization 

 Free energy of the ion-electron system (eV)
  ---------------------------------------------------
  alpha Z        PSCENC =         3.11251880
  Ewald energy   TEWEN  =      1291.20578142
  -Hartree energ DENC   =     -1504.01395233
  -exchange      EXHF   =         0.00000000
  -V(xc)+E(xc)   XCENC  =        26.34443178
  PAW double counting   =       217.04409276     -218.18290438
  entropy T*S    EENTRO =        -0.00000000
  eigenvalues    EBANDS =      -124.54028656
  atomic energy  EATOM  =       294.29778662
  Solvation  Ediel_sol  =         0.00000000
  ---------------------------------------------------
  free energy    TOTEN  =       -14.73253190 eV

  energy without entropy =      -14.73253190  energy(sigma->0) =      -14.73253190


--------------------------------------------------------------------------------------------------------




--------------------------------------- Iteration      1(   3)  ---------------------------------------


     EDDAV:  cpu time    0.0817: real time    0.0822
       DOS:  cpu time    0.0002: real time    0.0002
    --------------------------------------------
      LOOP:  cpu time    0.0819: real time    0.0824

 eigenvalue-minimisations  :   616
 total energy-change (2. order) :-0.4936993E+01  (-0.4936012E+01)
 number of electron       8.0000000 magnetization 
 augmentation part        8.0000000 magnetization 

 Free energy of the ion-electron system (eV)
  ---------------------------------------------------
  alpha Z        PSCENC =         3.11251880
  Ewald energy   TEWEN  =      1291.20578142
  -Hartree energ DENC   =     -1504.01395233
  -exchange      EXHF   =         0.00000000
  -V(xc)+E(xc)   XCENC  =        26.34443178
  PAW double counting   =       217.04409276     -218.18290438
  entropy T*S    EENTRO =        -0.00100285
  eigenvalues    EBANDS =      -129.47627661
  atomic energy  EATOM  =       294.29778662
  Solvation  Ediel_sol  =         0.00000000
  ---------------------------------------------------
  free energy    TOTEN  =       -19.66952479 eV

  energy without entropy =      -19.66852195  energy(sigma->0) =      -19.66902337


--------------------------------------------------------------------------------------------------------




--------------------------------------- Iteration      1(   4)  ---------------------------------------


     EDDAV:  cpu time    0.0920: real time    0.0926
       DOS:  cpu time    0.0002: real time    0.0002
    --------------------------------------------
      LOOP:  cpu time    0.0922: real time    0.0928

 eigenvalue-minimisations  :   704
 total energy-change (2. order) :-0.3877817E-01  (-0.3877801E-01)
 number of electron       8.0000000 magnetization 
 augmentation part        8.0000000 magnetization 

 Free energy of the ion-electron system (eV)
  ---------------------------------------------------
  alpha Z        PSCENC =         3.11251880
  Ewald energy   TEWEN  =      1291.20578142
  -Hartree energ DENC   =     -1504.01395233
  -exchange      EXHF   =         0.00000000
  -V(xc)+E(xc)   XCENC  =        26.34443178
  PAW double counting   =       217.04409276     -218.18290438
  entropy T*S    EENTRO =        -0.00100300
  eigenvalues    EBANDS =      -129.51505462
  atomic energy  EATOM  =       294.29778662
  Solvation  Ediel_sol  =         0.00000000
  ---------------------------------------------------
  free energy    TOTEN  =       -19.70830296 eV

  energy without entropy =      -19.70729996  energy(sigma->0) =      -19.70780146


--------------------------------------------------------------------------------------------------------




--------------------------------------- Iteration      1(   5)  ---------------------------------------


     EDDAV:  cpu time    0.0796: real time    0.0801
       DOS:  cpu time    0.0002: real time    0.0002
    CHARGE:  cpu time    0.0158: real time    0.0159
    MIXING:  cpu time    0.0004: real time    0.0004
    --------------------------------------------
      LOOP:  cpu time    0.0960: real time    0.0966

 eigenvalue-minimisations  :   600
 total energy-change (2. order) :-0.7384720E-04  (-0.7384757E-04)
 number of electron       8.0000000 magnetization 
 augmentation part        0.2131836 magnetization 

 Broyden mixing:
  rms(total) = 0.62804E+00    rms(broyden)= 0.62797E+00
  rms(prec ) = 0.67164E+00
  weight for this iteration     100.00

 Free energy of the ion-electron system (eV)
  ---------------------------------------------------
  alpha Z        PSCENC =         3.11251880
  Ewald energy   TEWEN  =      1291.20578142
  -Hartree energ DENC   =     -1504.01395233
  -exchange      EXHF   =         0.00000000
  -V(xc)+E(xc)   XCENC  =        26.34443178
  PAW double counting   =       217.04409276     -218.18290438
  entropy T*S    EENTRO =        -0.00100300
  eigenvalues    EBANDS =      -129.51512847
  atomic energy  EATOM  =       294.29778662
  Solvation  Ediel_sol  =         0.00000000
  ---------------------------------------------------
  free energy    TOTEN  =       -19.70837681 eV

  energy without entropy =      -19.70737380  energy(sigma->0) =      -19.70787531


--------------------------------------------------------------------------------------------------------




--------------------------------------- Iteration      1(   6)  ---------------------------------------


    POTLOK:  cpu time    0.0089: real time    0.0091
    SETDIJ:  cpu time    0.0100: real time    0.0100
     EDDAV:  cpu time    0.0760: real time    0.0764
       DOS:  cpu time    0.0002: real time    0.0002
    CHARGE:  cpu time    0.0140: real time    0.0141
    MIXING:  cpu time    0.0009: real time    0.0009
    --------------------------------------------
      LOOP:  cpu time    0.1101: real time    0.1107

 eigenvalue-minimisations  :   568
 total energy-change (2. order) : 0.9031904E+00  (-0.8769610E-01)
 number of electron       8.0000000 magnetization 
 augmentation part        0.2034897 magnetization 

 Broyden mixing:
  rms(total) = 0.36975E+00    rms(broyden)= 0.36975E+00
  rms(prec ) = 0.39159E+00
  weight for this iteration     100.00

 eigenvalues of (default mixing * dielectric matrix)
  average eigenvalue GAMMA=   2.2036
  2.2036

 Free energy of the ion-electron system (eV)
  ---------------------------------------------------
  alpha Z        PSCENC =         3.11251880
  Ewald energy   TEWEN  =      1291.20578142
  -Hartree energ DENC   =     -1515.13050983
  -exchange      EXHF   =         0.00000000
  -V(xc)+E(xc)   XCENC  =        26.82090381
  PAW double counting   =       397.57009923     -398.85977596
  entropy T*S    EENTRO =        -0.00100300
  eigenvalues    EBANDS =      -117.82098747
  atomic energy  EATOM  =       294.29778662
  Solvation  Ediel_sol  =         0.00000000
  ---------------------------------------------------
  free energy    TOTEN  =       -18.80518638 eV

  energy without entropy =      -18.80418338  energy(sigma->0) =      -18.80468488


--------------------------------------------------------------------------------------------------------




--------------------------------------- Iteration      1(   7)  ---------------------------------------


    POTLOK:  cpu time    0.0088: real time    0.0090
    SETDIJ:  cpu time    0.0100: real time    0.0100
     EDDAV:  cpu time    0.0907: real time    0.0911
       DOS:  cpu time    0.0002: real time    0.0002
    CHARGE:  cpu time    0.0144: real time    0.0145
    MIXING:  cpu time    0.0006: real time    0.0006
    --------------------------------------------
      LOOP:  cpu time    0.1247: real time    0.1254

 eigenvalue-minimisations  :   696
 total energy-change (2. order) : 0.3490174E+00  (-0.1171586E+00)
 number of electron       8.0000000 magnetization 
 augmentation part        0.1919731 magnetization 

 Broyden mixing:
  rms(total) = 0.96920E-01    rms(broyden)= 0.96889E-01
  rms(prec ) = 0.10062E+00
  weight for this iteration     100.00

 eigenvalues of (default mixing * dielectric matrix)
  average eigenvalue GAMMA=   2.2552
  2.2552  2.2552

 Free energy of the ion-electron system (eV)
  ---------------------------------------------------
  alpha Z        PSCENC =         3.11251880
  Ewald energy   TEWEN  =      1291.20578142
  -Hartree energ DENC   =     -1530.08209105
  -exchange      EXHF   =         0.00000000
  -V(xc)+E(xc)   XCENC  =        27.45742561
  PAW double counting   =       749.40072719     -750.82471728
  entropy T*S    EENTRO =        -0.00100300
  eigenvalues    EBANDS =      -103.02259733
  atomic energy  EATOM  =       294.29778662
  Solvation  Ediel_sol  =         0.00000000
  ---------------------------------------------------
  free energy    TOTEN  =       -18.45616902 eV

  energy without entropy =      -18.45516602  energy(sigma->0) =      -18.45566752


--------------------------------------------------------------------------------------------------------




--------------------------------------- Iteration      1(   8)  ---------------------------------------


    POTLOK:  cpu time    0.0090: real time    0.0091
    SETDIJ:  cpu time    0.0100: real time    0.0101
     EDDAV:  cpu time    0.0913: real time    0.0918
       DOS:  cpu time    0.0002: real time    0.0002
    CHARGE:  cpu time    0.0143: real time    0.0144
    MIXING:  cpu time    0.0007: real time    0.0007
    --------------------------------------------
      LOOP:  cpu time    0.1255: real time    0.1262

 eigenvalue-minimisations  :   704
 total energy-change (2. order) : 0.8398533E-02  (-0.1185367E-02)
 number of electron       8.0000000 magnetization 
 augmentation part        0.1921869 magnetization 

 Broyden mixing:
  rms(total) = 0.11953E-01    rms(broyden)= 0.11948E-01
  rms(prec ) = 0.19445E-01
  weight for this iteration     100.00

 eigenvalues of (default mixing * dielectric matrix)
  average eigenvalue GAMMA=   1.7438
  2.2015  2.2015  0.8284

 Free energy of the ion-electron system (eV)
  ---------------------------------------------------
  alpha Z        PSCENC =         3.11251880
  Ewald energy   TEWEN  =      1291.20578142
  -Hartree energ DENC   =     -1532.21846607
  -exchange      EXHF   =         0.00000000
  -V(xc)+E(xc)   XCENC  =        27.46545938
  PAW double counting   =       839.56900907     -840.93579682
  entropy T*S    EENTRO =        -0.00100300
  eigenvalues    EBANDS =      -100.94305989
  atomic energy  EATOM  =       294.29778662
  Solvation  Ediel_sol  =         0.00000000
  ---------------------------------------------------
  free energy    TOTEN  =       -18.44777049 eV

  energy without entropy =      -18.44676748  energy(sigma->0) =      -18.44726898


--------------------------------------------------------------------------------------------------------




--------------------------------------- Iteration      1(   9)  ---------------------------------------


    POTLOK:  cpu time    0.0090: real time    0.0091
    SETDIJ:  cpu time    0.0099: real time    0.0100
     EDDAV:  cpu time    0.0830: real time    0.0834
       DOS:  cpu time    0.0002: real time    0.0002
    CHARGE:  cpu time    0.0145: real time    0.0146
    MIXING:  cpu time    0.0005: real time    0.0005
    --------------------------------------------
      LOOP:  cpu time    0.1173: real time    0.1179

 eigenvalue-minimisations  :   632
 total energy-change (2. order) : 0.9609653E-03  (-0.5076493E-04)
 number of electron       8.0000000 magnetization 
 augmentation part        0.1919990 magnetization 

 Broyden mixing:
  rms(total) = 0.82111E-02    rms(broyden)= 0.82103E-02
  rms(prec ) = 0.15760E-01
  weight for this iteration     100.00

 eigenvalues of (default mixing * dielectric matrix)
  average eigenvalue GAMMA=   2.2417
  1.0033  3.4850  2.4993  1.9793

 Free energy of the ion-electron system (eV)
  ---------------------------------------------------
  alpha Z        PSCENC =         3.11251880
  Ewald energy   TEWEN  =      1291.20578142
  -Hartree energ DENC   =     -1532.93446696
  -exchange      EXHF   =         0.00000000
  -V(xc)+E(xc)   XCENC  =        27.47888885
  PAW double counting   =       835.86622032     -837.23587213
  entropy T*S    EENTRO =        -0.00100300
  eigenvalues    EBANDS =      -100.23666344
  atomic energy  EATOM  =       294.29778662
  Solvation  Ediel_sol  =         0.00000000
  ---------------------------------------------------
  free energy    TOTEN  =       -18.44680952 eV

  energy without entropy =      -18.44580652  energy(sigma->0) =      -18.44630802


--------------------------------------------------------------------------------------------------------




--------------------------------------- Iteration      1(  10)  ---------------------------------------


    POTLOK:  cpu time    0.0091: real time    0.0093
    SETDIJ:  cpu time    0.0099: real time    0.0099
     EDDAV:  cpu time    0.0801: real time    0.0805
       DOS:  cpu time    0.0002: real time    0.0002
    CHARGE:  cpu time    0.0143: real time    0.0144
    MIXING:  cpu time    0.0006: real time    0.0006
    --------------------------------------------
      LOOP:  cpu time    0.1143: real time    0.1149

 eigenvalue-minimisations  :   608
 total energy-change (2. order) : 0.2611172E-02  (-0.4230595E-03)
 number of electron       8.0000000 magnetization 
 augmentation part        0.1915964 magnetization 

 Broyden mixing:
  rms(total) = 0.49450E-02    rms(broyden)= 0.49433E-02
  rms(prec ) = 0.70464E-02
  weight for this iteration     100.00

 eigenvalues of (default mixing * dielectric matrix)
  average eigenvalue GAMMA=   2.3560
  3.4304  1.0330  2.6664  2.6664  1.9837

 Free energy of the ion-electron system (eV)
  ---------------------------------------------------
  alpha Z        PSCENC =         3.11251880
  Ewald energy   TEWEN  =      1291.20578142
  -Hartree energ DENC   =     -1536.45284058
  -exchange      EXHF   =         0.00000000
  -V(xc)+E(xc)   XCENC  =        27.52305804
  PAW double counting   =       827.71583530     -829.08211897
  entropy T*S    EENTRO =        -0.00100300
  eigenvalues    EBANDS =       -96.76321597
  atomic energy  EATOM  =       294.29778662
  Solvation  Ediel_sol  =         0.00000000
  ---------------------------------------------------
  free energy    TOTEN  =       -18.44419835 eV

  energy without entropy =      -18.44319534  energy(sigma->0) =      -18.44369685


--------------------------------------------------------------------------------------------------------




--------------------------------------- Iteration      1(  11)  ---------------------------------------


    POTLOK:  cpu time    0.0091: real time    0.0092
    SETDIJ:  cpu time    0.0097: real time    0.0097
     EDDAV:  cpu time    0.0711: real time    0.0715
       DOS:  cpu time    0.0002: real time    0.0002
    CHARGE:  cpu time    0.0145: real time    0.0146
    MIXING:  cpu time    0.0005: real time    0.0005
    --------------------------------------------
      LOOP:  cpu time    0.1051: real time    0.1057

 eigenvalue-minimisations  :   512
 total energy-change (2. order) :-0.8143923E-03  (-0.1572493E-04)
 number of electron       8.0000000 magnetization 
 augmentation part        0.1915418 magnetization 

 Broyden mixing:
  rms(total) = 0.65553E-02    rms(broyden)= 0.65552E-02
  rms(prec ) = 0.69885E-02
  weight for this iteration     100.00

 eigenvalues of (default mixing * dielectric matrix)
  average eigenvalue GAMMA=   2.4882
  5.6627  2.9026  2.4756  1.9857  1.0141  0.8885

 Free energy of the ion-electron system (eV)
  ---------------------------------------------------
  alpha Z        PSCENC =         3.11251880
  Ewald energy   TEWEN  =      1291.20578142
  -Hartree energ DENC   =     -1537.42244444
  -exchange      EXHF   =         0.00000000
  -V(xc)+E(xc)   XCENC  =        27.52417506
  PAW double counting   =       838.38649146     -839.75157199
  entropy T*S    EENTRO =        -0.00100300
  eigenvalues    EBANDS =       -95.79674666
  atomic energy  EATOM  =       294.29778662
  Solvation  Ediel_sol  =         0.00000000
  ---------------------------------------------------
  free energy    TOTEN  =       -18.44501274 eV

  energy without entropy =      -18.44400974  energy(sigma->0) =      -18.44451124


--------------------------------------------------------------------------------------------------------




--------------------------------------- Iteration      1(  12)  ---------------------------------------


    POTLOK:  cpu time    0.0087: real time    0.0089
    SETDIJ:  cpu time    0.0097: real time    0.0098
     EDDAV:  cpu time    0.0697: real time    0.0700
       DOS:  cpu time    0.0002: real time    0.0002
    CHARGE:  cpu time    0.0145: real time    0.0146
    MIXING:  cpu time    0.0006: real time    0.0006
    --------------------------------------------
      LOOP:  cpu time    0.1035: real time    0.1040

 eigenvalue-minimisations  :   520
 total energy-change (2. order) :-0.2620766E-03  (-0.3371980E-05)
 number of electron       8.0000000 magnetization 
 augmentation part        0.1915232 magnetization 

 Broyden mixing:
  rms(total) = 0.16744E-02    rms(broyden)= 0.16743E-02
  rms(prec ) = 0.21456E-02
  weight for this iteration     100.00

 eigenvalues of (default mixing * dielectric matrix)
  average eigenvalue GAMMA=   2.9628
  7.3228  4.1143  2.8117  2.5022  1.9764  1.0291  0.9829

 Free energy of the ion-electron system (eV)
  ---------------------------------------------------
  alpha Z        PSCENC =         3.11251880
  Ewald energy   TEWEN  =      1291.20578142
  -Hartree energ DENC   =     -1537.84776442
  -exchange      EXHF   =         0.00000000
  -V(xc)+E(xc)   XCENC  =        27.52359761
  PAW double counting   =       831.60611070     -832.97276572
  entropy T*S    EENTRO =        -0.00100300
  eigenvalues    EBANDS =       -95.36953682
  atomic energy  EATOM  =       294.29778662
  Solvation  Ediel_sol  =         0.00000000
  ---------------------------------------------------
  free energy    TOTEN  =       -18.44527482 eV

  energy without entropy =      -18.44427181  energy(sigma->0) =      -18.44477332


--------------------------------------------------------------------------------------------------------




--------------------------------------- Iteration      1(  13)  ---------------------------------------


    POTLOK:  cpu time    0.0087: real time    0.0089
    SETDIJ:  cpu time    0.0096: real time    0.0097
     EDDAV:  cpu time    0.0791: real time    0.0795
       DOS:  cpu time    0.0002: real time    0.0002
    CHARGE:  cpu time    0.0145: real time    0.0146
    MIXING:  cpu time    0.0006: real time    0.0006
    --------------------------------------------
      LOOP:  cpu time    0.1127: real time    0.1134

 eigenvalue-minimisations  :   600
 total energy-change (2. order) :-0.8858203E-03  (-0.1641159E-04)
 number of electron       8.0000000 magnetization 
 augmentation part        0.1915138 magnetization 

 Broyden mixing:
  rms(total) = 0.92847E-03    rms(broyden)= 0.92846E-03
  rms(prec ) = 0.99300E-03
  weight for this iteration     100.00

 eigenvalues of (default mixing * dielectric matrix)
  average eigenvalue GAMMA=   2.7113
  7.6980  4.1282  2.7124  2.4441  1.9771  1.0230  0.9824  0.7254

 Free energy of the ion-electron system (eV)
  ---------------------------------------------------
  alpha Z        PSCENC =         3.11251880
  Ewald energy   TEWEN  =      1291.20578142
  -Hartree energ DENC   =     -1538.10460438
  -exchange      EXHF   =         0.00000000
  -V(xc)+E(xc)   XCENC  =        27.52348969
  PAW double counting   =       829.71723155     -831.08342947
  entropy T*S    EENTRO =        -0.00100300
  eigenvalues    EBANDS =       -95.11393187
  atomic energy  EATOM  =       294.29778662
  Solvation  Ediel_sol  =         0.00000000
  ---------------------------------------------------
  free energy    TOTEN  =       -18.44616064 eV

  energy without entropy =      -18.44515763  energy(sigma->0) =      -18.44565914


--------------------------------------------------------------------------------------------------------




--------------------------------------- Iteration      1(  14)  ---------------------------------------


    POTLOK:  cpu time    0.0089: real time    0.0090
    SETDIJ:  cpu time    0.0097: real time    0.0098
     EDDAV:  cpu time    0.0812: real time    0.0817
       DOS:  cpu time    0.0002: real time    0.0002
    CHARGE:  cpu time    0.0145: real time    0.0146
    MIXING:  cpu time    0.0006: real time    0.0006
    --------------------------------------------
      LOOP:  cpu time    0.1151: real time    0.1158

 eigenvalue-minimisations  :   616
 total energy-change (2. order) :-0.5407244E-04  (-0.2078672E-06)
 number of electron       8.0000000 magnetization 
 augmentation part        0.1915141 magnetization 

 Broyden mixing:
  rms(total) = 0.35145E-03    rms(broyden)= 0.35145E-03
  rms(prec ) = 0.44245E-03
  weight for this iteration     100.00

 eigenvalues of (default mixing * dielectric matrix)
  average eigenvalue GAMMA=   2.9520
  8.3530  4.9593  3.2174  2.5145  2.5145  1.9843  1.0028  1.0028  1.0196

 Free energy of the ion-electron system (eV)
  ---------------------------------------------------
  alpha Z        PSCENC =         3.11251880
  Ewald energy   TEWEN  =      1291.20578142
  -Hartree energ DENC   =     -1538.09713963
  -exchange      EXHF   =         0.00000000
  -V(xc)+E(xc)   XCENC  =        27.52298485
  PAW double counting   =       830.36063051     -831.72688812
  entropy T*S    EENTRO =        -0.00100300
  eigenvalues    EBANDS =       -95.12088615
  atomic energy  EATOM  =       294.29778662
  Solvation  Ediel_sol  =         0.00000000
  ---------------------------------------------------
  free energy    TOTEN  =       -18.44621471 eV

  energy without entropy =      -18.44521171  energy(sigma->0) =      -18.44571321


--------------------------------------------------------------------------------------------------------




--------------------------------------- Iteration      1(  15)  ---------------------------------------


    POTLOK:  cpu time    0.0090: real time    0.0092
    SETDIJ:  cpu time    0.0097: real time    0.0098
     EDDAV:  cpu time    0.0689: real time    0.0693
       DOS:  cpu time    0.0002: real time    0.0002
    CHARGE:  cpu time    0.0145: real time    0.0145
    MIXING:  cpu time    0.0006: real time    0.0006
    --------------------------------------------
      LOOP:  cpu time    0.1030: real time    0.1036

 eigenvalue-minimisations  :   512
 total energy-change (2. order) :-0.8866906E-04  (-0.1019027E-05)
 number of electron       8.0000000 magnetization 
 augmentation part        0.1915146 magnetization 

 Broyden mixing:
  rms(total) = 0.20033E-03    rms(broyden)= 0.20033E-03
  rms(prec ) = 0.22836E-03
  weight for this iteration     100.00

 eigenvalues of (default mixing * dielectric matrix)
  average eigenvalue GAMMA=   2.8531
  8.3384  5.0952  3.0757  2.9266  2.4054  1.9513  1.6508  0.9873  1.0744  1.0261

 Free energy of the ion-electron system (eV)
  ---------------------------------------------------
  alpha Z        PSCENC =         3.11251880
  Ewald energy   TEWEN  =      1291.20578142
  -Hartree energ DENC   =     -1538.12512964
  -exchange      EXHF   =         0.00000000
  -V(xc)+E(xc)   XCENC  =        27.52287456
  PAW double counting   =       830.67649351     -832.04283139
  entropy T*S    EENTRO =        -0.00100300
  eigenvalues    EBANDS =       -95.09279425
  atomic energy  EATOM  =       294.29778662
  Solvation  Ediel_sol  =         0.00000000
  ---------------------------------------------------
  free energy    TOTEN  =       -18.44630338 eV

  energy without entropy =      -18.44530038  energy(sigma->0) =      -18.44580188


--------------------------------------------------------------------------------------------------------




--------------------------------------- Iteration      1(  16)  ---------------------------------------


    POTLOK:  cpu time    0.0089: real time    0.0091
    SETDIJ:  cpu time    0.0099: real time    0.0100
     EDDAV:  cpu time    0.0823: real time    0.0827
       DOS:  cpu time    0.0002: real time    0.0002
    CHARGE:  cpu time    0.0144: real time    0.0145
    MIXING:  cpu time    0.0007: real time    0.0007
    --------------------------------------------
      LOOP:  cpu time    0.1164: real time    0.1171

 eigenvalue-minimisations  :   624
 total energy-change (2. order) :-0.5139340E-05  (-0.1190492E-07)
 number of electron       8.0000000 magnetization 
 augmentation part        0.1915120 magnetization 

 Broyden mixing:
  rms(total) = 0.99526E-04    rms(broyden)= 0.99522E-04
  rms(prec ) = 0.12666E-03
  weight for this iteration     100.00

 eigenvalues of (default mixing * dielectric matrix)
  average eigenvalue GAMMA=   2.8746
  8.4424  5.4029  3.8446  2.9533  2.5666  2.4226  1.9784  1.0335  0.9968  0.9968
  0.9823

 Free energy of the ion-electron system (eV)
  ---------------------------------------------------
  alpha Z        PSCENC =         3.11251880
  Ewald energy   TEWEN  =      1291.20578142
  -Hartree energ DENC   =     -1538.13878968
  -exchange      EXHF   =         0.00000000
  -V(xc)+E(xc)   XCENC  =        27.52297263
  PAW double counting   =       830.42288777     -831.78929672
  entropy T*S    EENTRO =        -0.00100300
  eigenvalues    EBANDS =       -95.07916635
  atomic energy  EATOM  =       294.29778662
  Solvation  Ediel_sol  =         0.00000000
  ---------------------------------------------------
  free energy    TOTEN  =       -18.44630852 eV

  energy without entropy =      -18.44530551  energy(sigma->0) =      -18.44580702


--------------------------------------------------------------------------------------------------------




--------------------------------------- Iteration      1(  17)  ---------------------------------------


    POTLOK:  cpu time    0.0089: real time    0.0090
    SETDIJ:  cpu time    0.0099: real time    0.0099
     EDDAV:  cpu time    0.0654: real time    0.0658
       DOS:  cpu time    0.0002: real time    0.0002
    CHARGE:  cpu time    0.0145: real time    0.0146
    MIXING:  cpu time    0.0006: real time    0.0006
    --------------------------------------------
      LOOP:  cpu time    0.0995: real time    0.1001

 eigenvalue-minimisations  :   480
 total energy-change (2. order) :-0.4501971E-05  (-0.3116860E-07)
 number of electron       8.0000000 magnetization 
 augmentation part        0.1915128 magnetization 

 Broyden mixing:
  rms(total) = 0.53167E-04    rms(broyden)= 0.53164E-04
  rms(prec ) = 0.65263E-04
  weight for this iteration     100.00

 eigenvalues of (default mixing * dielectric matrix)
  average eigenvalue GAMMA=   3.1742
  8.3230  7.2502  4.8782  3.7991  2.8020  2.5810  2.4415  1.9789  1.0501  1.0023
  0.9918  0.9918

 Free energy of the ion-electron system (eV)
  ---------------------------------------------------
  alpha Z        PSCENC =         3.11251880
  Ewald energy   TEWEN  =      1291.20578142
  -Hartree energ DENC   =     -1538.15033409
  -exchange      EXHF   =         0.00000000
  -V(xc)+E(xc)   XCENC  =        27.52293229
  PAW double counting   =       830.49001436     -831.85634436
  entropy T*S    EENTRO =        -0.00100300
  eigenvalues    EBANDS =       -95.06766506
  atomic energy  EATOM  =       294.29778662
  Solvation  Ediel_sol  =         0.00000000
  ---------------------------------------------------
  free energy    TOTEN  =       -18.44631302 eV

  energy without entropy =      -18.44531002  energy(sigma->0) =      -18.44581152


--------------------------------------------------------------------------------------------------------




--------------------------------------- Iteration      1(  18)  ---------------------------------------


    POTLOK:  cpu time    0.0090: real time    0.0091
    SETDIJ:  cpu time    0.0097: real time    0.0097
     EDDAV:  cpu time    0.0682: real time    0.0686
       DOS:  cpu time    0.0002: real time    0.0002
    CHARGE:  cpu time    0.0145: real time    0.0146
    MIXING:  cpu time    0.0007: real time    0.0007
    --------------------------------------------
      LOOP:  cpu time    0.1023: real time    0.1029

 eigenvalue-minimisations  :   504
 total energy-change (2. order) :-0.3655722E-05  (-0.2212120E-08)
 number of electron       8.0000000 magnetization 
 augmentation part        0.1915130 magnetization 

 Broyden mixing:
  rms(total) = 0.25211E-04    rms(broyden)= 0.25205E-04
  rms(prec ) = 0.26474E-04
  weight for this iteration     100.00

 eigenvalues of (default mixing * dielectric matrix)
  average eigenvalue GAMMA=   2.9967
  8.4533  7.1216  5.0364  3.6275  2.8533  2.5375  2.4137  1.9781  1.0323  1.0199
  1.0199  0.9608  0.9032

 Free energy of the ion-electron system (eV)
  ---------------------------------------------------
  alpha Z        PSCENC =         3.11251880
  Ewald energy   TEWEN  =      1291.20578142
  -Hartree energ DENC   =     -1538.15642317
  -exchange      EXHF   =         0.00000000
  -V(xc)+E(xc)   XCENC  =        27.52291543
  PAW double counting   =       830.54165606     -831.90800350
  entropy T*S    EENTRO =        -0.00100300
  eigenvalues    EBANDS =       -95.06154534
  atomic energy  EATOM  =       294.29778662
  Solvation  Ediel_sol  =         0.00000000
  ---------------------------------------------------
  free energy    TOTEN  =       -18.44631668 eV

  energy without entropy =      -18.44531367  energy(sigma->0) =      -18.44581517


--------------------------------------------------------------------------------------------------------




--------------------------------------- Iteration      1(  19)  ---------------------------------------


    POTLOK:  cpu time    0.0090: real time    0.0092
    SETDIJ:  cpu time    0.0098: real time    0.0099
     EDDAV:  cpu time    0.0758: real time    0.0763
       DOS:  cpu time    0.0002: real time    0.0002
    CHARGE:  cpu time    0.0145: real time    0.0146
    MIXING:  cpu time    0.0007: real time    0.0007
    --------------------------------------------
      LOOP:  cpu time    0.1101: real time    0.1108

 eigenvalue-minimisations  :   568
 total energy-change (2. order) :-0.4491270E-06  (-0.1797353E-09)
 number of electron       8.0000000 magnetization 
 augmentation part        0.1915129 magnetization 

 Broyden mixing:
  rms(total) = 0.10320E-04    rms(broyden)= 0.10306E-04
  rms(prec ) = 0.10828E-04
  weight for this iteration     100.00

 eigenvalues of (default mixing * dielectric matrix)
  average eigenvalue GAMMA=   3.2342
  9.8033  8.3952  5.3233  3.7725  3.3139  2.7583  2.5444  2.4190  1.9782  1.0559
  1.0054  0.9875  0.9875  0.9350

 Free energy of the ion-electron system (eV)
  ---------------------------------------------------
  alpha Z        PSCENC =         3.11251880
  Ewald energy   TEWEN  =      1291.20578142
  -Hartree energ DENC   =     -1538.15850585
  -exchange      EXHF   =         0.00000000
  -V(xc)+E(xc)   XCENC  =        27.52293013
  PAW double counting   =       830.52540788     -831.89175153
  entropy T*S    EENTRO =        -0.00100300
  eigenvalues    EBANDS =       -95.05948159
  atomic energy  EATOM  =       294.29778662
  Solvation  Ediel_sol  =         0.00000000
  ---------------------------------------------------
  free energy    TOTEN  =       -18.44631713 eV

  energy without entropy =      -18.44531412  energy(sigma->0) =      -18.44581562


--------------------------------------------------------------------------------------------------------




--------------------------------------- Iteration      1(  20)  ---------------------------------------


    POTLOK:  cpu time    0.0093: real time    0.0094
    SETDIJ:  cpu time    0.0098: real time    0.0099
     EDDAV:  cpu time    0.0718: real time    0.0722
       DOS:  cpu time    0.0002: real time    0.0002
    CHARGE:  cpu time    0.0146: real time    0.0146
    MIXING:  cpu time    0.0008: real time    0.0008
    --------------------------------------------
      LOOP:  cpu time    0.1065: real time    0.1071

 eigenvalue-minimisations  :   536
 total energy-change (2. order) :-0.4140960E-06  (-0.3885533E-09)
 number of electron       8.0000000 magnetization 
 augmentation part        0.1915129 magnetization 

 Broyden mixing:
  rms(total) = 0.13059E-05    rms(broyden)= 0.11887E-05
  rms(prec ) = 0.12661E-05
  weight for this iteration     100.00

 eigenvalues of (default mixing * dielectric matrix)
  average eigenvalue GAMMA=   3.1822
  9.8042  8.5025  5.2082  4.0541  2.9760  2.9760  1.9754  2.5634  2.3072  2.3072
  1.0657  0.9859  0.9859  1.0104  1.0104

 Free energy of the ion-electron system (eV)
  ---------------------------------------------------
  alpha Z        PSCENC =         3.11251880
  Ewald energy   TEWEN  =      1291.20578142
  -Hartree energ DENC   =     -1538.15875740
  -exchange      EXHF   =         0.00000000
  -V(xc)+E(xc)   XCENC  =        27.52292922
  PAW double counting   =       830.51891205     -831.88525390
  entropy T*S    EENTRO =        -0.00100300
  eigenvalues    EBANDS =       -95.05923136
  atomic energy  EATOM  =       294.29778662
  Solvation  Ediel_sol  =         0.00000000
  ---------------------------------------------------
  free energy    TOTEN  =       -18.44631754 eV

  energy without entropy =      -18.44531454  energy(sigma->0) =      -18.44581604


--------------------------------------------------------------------------------------------------------




--------------------------------------- Iteration      1(  21)  ---------------------------------------


    POTLOK:  cpu time    0.0092: real time    0.0093
    SETDIJ:  cpu time    0.0098: real time    0.0099
     EDDAV:  cpu time    0.0847: real time    0.0852
       DOS:  cpu time    0.0002: real time    0.0002
    CHARGE:  cpu time    0.0145: real time    0.0145
    MIXING:  cpu time    0.0007: real time    0.0007
    --------------------------------------------
      LOOP:  cpu time    0.1191: real time    0.1198

 eigenvalue-minimisations  :   648
 total energy-change (2. order) :-0.1859860E-07  (-0.4755382E-11)
 number of electron       8.0000000 magnetization 
 augmentation part        0.1915129 magnetization 

 Broyden mixing:
  rms(total) = 0.62867E-06    rms(broyden)= 0.32048E-06
  rms(prec ) = 0.37708E-06
  weight for this iteration     100.00
  WARNING: grid for Broyden might be to small

 eigenvalues of (default mixing * dielectric matrix)
  average eigenvalue GAMMA=   3.0859
  9.8365  8.4853  5.2440  4.0160  3.2721  2.8825  2.7213  2.5097  2.3619  1.9777
  1.0629  0.9886  0.9886  1.0103  1.0085  1.0085

 Free energy of the ion-electron system (eV)
  ---------------------------------------------------
  alpha Z        PSCENC =         3.11251880
  Ewald energy   TEWEN  =      1291.20578142
  -Hartree energ DENC   =     -1538.15862437
  -exchange      EXHF   =         0.00000000
  -V(xc)+E(xc)   XCENC  =        27.52292764
  PAW double counting   =       830.51998581     -831.88632808
  entropy T*S    EENTRO =        -0.00100300
  eigenvalues    EBANDS =       -95.05936240
  atomic energy  EATOM  =       294.29778662
  Solvation  Ediel_sol  =         0.00000000
  ---------------------------------------------------
  free energy    TOTEN  =       -18.44631756 eV

  energy without entropy =      -18.44531455  energy(sigma->0) =      -18.44581606


--------------------------------------------------------------------------------------------------------




--------------------------------------- Iteration      1(  22)  ---------------------------------------


    POTLOK:  cpu time    0.0092: real time    0.0093
    SETDIJ:  cpu time    0.0099: real time    0.0099
     EDDAV:  cpu time    0.0665: real time    0.0668
       DOS:  cpu time    0.0002: real time    0.0002
    CHARGE:  cpu time    0.0144: real time    0.0145
    MIXING:  cpu time    0.0008: real time    0.0008
    --------------------------------------------
      LOOP:  cpu time    0.1010: real time    0.1016

 eigenvalue-minimisations  :   488
 total energy-change (2. order) :-0.1005571E-07  (-0.2612334E-11)
 number of electron       8.0000000 magnetization 
 augmentation part        0.1915129 magnetization 

 Broyden mixing:
  rms(total) = 0.54303E-06    rms(broyden)= 0.48630E-07
  rms(prec ) = 0.51566E-07
  weight for this iteration     100.00
  WARNING: grid for Broyden might be to small

 eigenvalues of (default mixing * dielectric matrix)
  average eigenvalue GAMMA=   3.0577
  9.8395  8.4837  5.2458  4.0253  3.2567  3.0269  1.9773  2.6459  2.6459  2.3415
  2.4245  1.0664  0.9902  0.9902  0.9927  1.0078  1.0208

 Free energy of the ion-electron system (eV)
  ---------------------------------------------------
  alpha Z        PSCENC =         3.11251880
  Ewald energy   TEWEN  =      1291.20578142
  -Hartree energ DENC   =     -1538.15865714
  -exchange      EXHF   =         0.00000000
  -V(xc)+E(xc)   XCENC  =        27.52292790
  PAW double counting   =       830.51952743     -831.88586974
  entropy T*S    EENTRO =        -0.00100300
  eigenvalues    EBANDS =       -95.05932985
  atomic energy  EATOM  =       294.29778662
  Solvation  Ediel_sol  =         0.00000000
  ---------------------------------------------------
  free energy    TOTEN  =       -18.44631757 eV

  energy without entropy =      -18.44531456  energy(sigma->0) =      -18.44581607


--------------------------------------------------------------------------------------------------------




--------------------------------------- Iteration      1(  23)  ---------------------------------------


    POTLOK:  cpu time    0.0092: real time    0.0093
    SETDIJ:  cpu time    0.0098: real time    0.0099
     EDDAV:  cpu time    0.0895: real time    0.0900
       DOS:  cpu time    0.0002: real time    0.0002
    --------------------------------------------
      LOOP:  cpu time    0.1088: real time    0.1095

 eigenvalue-minimisations  :   688
 total energy-change (2. order) :-0.3009291E-09  (-0.8777177E-13)
 number of electron       8.0000000 magnetization 
 augmentation part        0.1915129 magnetization 

 Free energy of the ion-electron system (eV)
  ---------------------------------------------------
  alpha Z        PSCENC =         3.11251880
  Ewald energy   TEWEN  =      1291.20578142
  -Hartree energ DENC   =     -1538.15866009
  -exchange      EXHF   =         0.00000000
  -V(xc)+E(xc)   XCENC  =        27.52292791
  PAW double counting   =       830.51954863     -831.88589092
  entropy T*S    EENTRO =        -0.00100300
  eigenvalues    EBANDS =       -95.05932693
  atomic energy  EATOM  =       294.29778662
  Solvation  Ediel_sol  =         0.00000000
  ---------------------------------------------------
  free energy    TOTEN  =       -18.44631757 eV

  energy without entropy =      -18.44531456  energy(sigma->0) =      -18.44581607


--------------------------------------------------------------------------------------------------------




 average (electrostatic) potential at core
  the test charge radii are     0.6991
  (the norm of the test charge is              1.0000)
       1 -58.2008       2 -58.2008
 
 
 
 E-fermi :  -2.7609     XC(G=0):  -2.1543     alpha+bet : -1.8987


 k-point     1 :       0.0000    0.0000    0.0000
  band No.  band energies     occupation 
      1     -22.2458      2.00000
      2     -10.3526      2.00000
      3      -5.7904      2.00000
      4      -5.7904      2.00000
      5       0.5194      0.00000
      6       1.3186      0.00000
      7       1.6821      0.00000
      8       2.5906      0.00000

 k-point     2 :       0.0667    0.0000    0.0000
  band No.  band energies     occupation 
      1     -22.1410      2.00000
      2     -10.2276      2.00000
      3      -6.2146      2.00000
      4      -6.0117      2.00000
      5       0.6616      0.00000
      6       1.4626      0.00000
      7       1.8278      0.00000
      8       2.7351      0.00000

 k-point     3 :       0.1333    0.0000    0.0000
  band No.  band energies     occupation 
      1     -21.8272      2.00000
      2      -9.8546      2.00000
      3      -7.3410      2.00000
      4      -6.5725      2.00000
      5       1.0883      0.00000
      6       1.8941      0.00000
      7       2.2652      0.00000
      8       3.1682      0.00000

 k-point     4 :       0.2000   -0.0000    0.0000
  band No.  band energies     occupation 
      1     -21.3067      2.00000
      2      -9.2406      2.00000
      3      -8.8856      2.00000
      4      -7.2738      2.00000
      5       1.7987      0.00000
      6       2.6108      0.00000
      7       2.9942      0.00000
      8       3.8872      0.00000

 k-point     5 :       0.2667   -0.0000    0.0000
  band No.  band energies     occupation 
      1     -20.5837      2.00000
      2     -10.6135      2.00000
      3      -8.4009      2.00000
      4      -7.9562      2.00000
      5       2.7908      0.00000
      6       3.5619      0.00000
      7       4.0141      0.00000
      8       4.0448      0.00000

 k-point     6 :       0.3333   -0.0000    0.0000
  band No.  band energies     occupation 
      1     -19.6660      2.00000
      2     -12.3736      2.00000
      3      -8.5241      2.00000
      4      -7.3685      2.00000
      5       2.1313      0.00000
      6       4.0543      0.00000
      7       4.9233      0.00000
      8       4.9236      0.00000

 k-point     7 :       0.4000   -0.0000    0.0000
  band No.  band energies     occupation 
      1     -18.5702      2.00000
      2     -14.0668      2.00000
      3      -8.9247      2.00000
      4      -6.2299      2.00000
      5       0.3926      0.00000
      6       4.6937      0.00000
      7       5.6348      0.00000
      8       6.4823      0.00000

 k-point     8 :       0.4667   -0.0000    0.0000
  band No.  band energies     occupation 
      1     -17.3761      2.00000
      2     -15.5694      2.00000
      3      -9.1308      2.00000
      4      -5.2783      2.00000
      5      -0.8784      0.00000
      6       4.5952      0.00000
      7       7.4328      0.00000
      8       8.3005      0.00000

 k-point     9 :       0.0667    0.0667    0.0000
  band No.  band energies     occupation 
      1     -21.9317      2.00000
      2      -9.9785      2.00000
      3      -6.9385      2.00000
      4      -6.4547      2.00000
      5       0.9461      0.00000
      6       1.7504      0.00000
      7       2.1194      0.00000
      8       3.0239      0.00000

 k-point    10 :       0.1333    0.0667    0.0000
  band No.  band energies     occupation 
      1     -21.5145      2.00000
      2      -9.4848      2.00000
      3      -8.1850      2.00000
      4      -7.1768      2.00000
      5       1.5150      0.00000
      6       2.3249      0.00000
      7       2.7027      0.00000
      8       3.6007      0.00000

 k-point    11 :       0.2000    0.0667    0.0000
  band No.  band energies     occupation 
      1     -20.8928      2.00000
      2      -9.7626      2.00000
      3      -8.7568      2.00000
      4      -7.9291      2.00000
      5       2.3670      0.00000
      6       3.1800      0.00000
      7       3.5774      0.00000
      8       4.4469      0.00000

 k-point    12 :       0.2667    0.0667    0.0000
  band No.  band energies     occupation 
      1     -20.0723      2.00000
      2     -11.4759      2.00000
      3      -8.5858      2.00000
      4      -7.8164      2.00000
      5       2.9656      0.00000
      6       3.4987      0.00000
      7       4.3509      0.00000
      8       4.7424      0.00000

 k-point    13 :       0.3333    0.0667    0.0000
  band No.  band energies     occupation 
      1     -19.0642      2.00000
      2     -13.1885      2.00000
      3      -9.0853      2.00000
      4      -6.7145      2.00000
      5       1.1887      0.00000
      6       4.8828      0.00000
      7       5.2992      0.00000
      8       5.7644      0.00000

 k-point    14 :       0.4000    0.0667    0.0000
  band No.  band energies     occupation 
      1     -17.8993      2.00000
      2     -14.7992      2.00000
      3      -9.3953      2.00000
      4      -5.6034      2.00000
      5      -0.3684      0.00000
      6       5.1008      0.00000
      7       6.6037      0.00000
      8       7.4469      0.00000

 k-point    15 :       0.4667    0.0667    0.0000
  band No.  band energies     occupation 
      1     -16.9519      2.00000
      2     -15.8988      2.00000
      3      -9.5002      2.00000
      4      -5.0180      2.00000
      5      -1.1085      0.00000
      6       5.0493      0.00000
      7       8.4433      0.00000
      8       8.6030      0.00000

 k-point    16 :       0.1333    0.1333    0.0000
  band No.  band energies     occupation 
      1     -20.9961      2.00000
      2      -9.2834      2.00000
      3      -8.8762      2.00000
      4      -8.1335      2.00000
      5       2.2258      0.00000
      6       3.0410      0.00000
      7       3.4318      0.00000
      8       4.3201      0.00000

 k-point    17 :       0.2000    0.1333    0.0000
  band No.  band energies     occupation 
      1     -20.2768      2.00000
      2     -10.6739      2.00000
      3      -9.0347      2.00000
      4      -8.0436      2.00000
      5       3.2185      0.00000
      6       3.5081      0.00000
      7       4.0462      0.00000
      8       4.4523      0.00000

 k-point    18 :       0.2667    0.1333    0.0000
  band No.  band energies     occupation 
      1     -19.3649      2.00000
      2     -12.2589      2.00000
      3      -9.7058      2.00000
      4      -7.0182      2.00000
      5       1.8483      0.00000
      6       4.4882      0.00000
      7       5.3161      0.00000
      8       5.7632      0.00000

 k-point    19 :       0.3333    0.1333    0.0000
  band No.  band energies     occupation 
      1     -18.2785      2.00000
      2     -13.8644      2.00000
      3     -10.1485      2.00000
      4      -5.8795      2.00000
      5       0.2290      0.00000
      6       6.0107      0.00000
      7       6.4555      0.00000
      8       6.8422      0.00000

 k-point    20 :       0.4000    0.1333    0.0000
  band No.  band energies     occupation 
      1     -17.0994      2.00000
      2     -15.3207      2.00000
      3     -10.3696      2.00000
      4      -4.9058      2.00000
      5      -1.0030      0.00000
      6       6.3171      0.00000
      7       7.8307      0.00000
      8       8.5111      0.00000

 k-point    21 :       0.2000    0.2000    0.0000
  band No.  band energies     occupation 
      1     -19.4659      2.00000
      2     -11.6869      2.00000
      3     -10.2006      2.00000
      4      -7.1214      2.00000
      5       2.1185      0.00000
      6       4.3489      0.00000
      7       5.1598      0.00000
      8       5.6184      0.00000

 k-point    22 :       0.2667    0.2000    0.0000
  band No.  band energies     occupation 
      1     -18.4732      2.00000
      2     -12.9657      2.00000
      3     -11.0175      2.00000
      4      -6.0334      2.00000
      5       0.6499      0.00000
      6       5.7498      0.00000
      7       6.5175      0.00000
      8       7.0746      0.00000

 k-point    23 :       0.3333    0.2000    0.0000
  band No.  band energies     occupation 
      1     -17.3333      2.00000
      2     -14.3842      2.00000
      3     -11.4437      2.00000
      4      -4.9027      2.00000
      5      -0.7316      0.00000
      6       7.3942      0.00000
      7       7.9294      0.00000
      8       8.1023      0.00000

 k-point    24 :       0.4000    0.2000    0.0000
  band No.  band energies     occupation 
      1     -16.4125      2.00000
      2     -15.4137      2.00000
      3     -11.5764      2.00000
      4      -4.2575      2.00000
      5      -1.4650      0.00000
      6       8.0199      0.00000
      7       8.5617      0.00000
      8       9.1394      0.00000

 k-point    25 :       0.2667    0.2667    0.0000
  band No.  band energies     occupation 
      1     -17.4204      2.00000
      2     -13.7488      2.00000
      3     -12.1337      2.00000
      4      -4.9152      2.00000
      5      -0.5900      0.00000
      6       7.2625      0.00000
      7       7.6969      0.00000
      8       8.6741      0.00000

 k-point    26 :       0.3333    0.2667    0.0000
  band No.  band energies     occupation 
      1     -16.2889      2.00000
      2     -14.7895      2.00000
      3     -12.6727      2.00000
      4      -3.8406      2.00000
      5      -1.7196      0.00000
      6       8.0454      0.00000
      7       8.9438      0.00000
      8       9.7686      0.00000

 k-point    27 :       0.3333    0.3333    0.0000
  band No.  band energies     occupation 
      1     -15.3392      2.00000
      2     -15.3392      2.00000
      3     -13.2796      2.00000
      4      -2.7609      1.00000
      5      -2.7609      1.00000
      6       7.8528      0.00000
      7      10.1033      0.00000
      8      10.1033      0.00000


--------------------------------------------------------------------------------------------------------


 soft charge-density along one line, spin component           1
         0         1         2         3         4         5         6         7         8         9
 total charge-density along one line
 
 pseudopotential strength for first ion, spin component:           1
 10.220  13.591   0.000   0.000  -0.000  -0.000  -0.000   0.000
 13.591  18.072   0.000   0.000  -0.000  -0.000  -0.000   0.000
  0.000   0.000  -4.348  -0.000  -0.000   8.505   0.000   0.000
  0.000   0.000  -0.000  -4.341  -0.000   0.000   8.496   0.000
 -0.000  -0.000  -0.000  -0.000  -4.348   0.000   0.000   8.505
 -0.000  -0.000   8.505   0.000   0.000 -18.773  -0.000  -0.000
 -0.000  -0.000   0.000   8.496   0.000  -0.000 -18.764  -0.000
  0.000   0.000   0.000   0.000   8.505  -0.000  -0.000 -18.773
 total augmentation occupancy for first ion, spin component:           1
  8.008  -3.538   0.000   0.000  -0.000   0.000   0.000  -0.000
 -3.538   1.621  -0.000  -0.000   0.000   0.000   0.000   0.000
 -0.000   0.000   1.809   0.000  -0.000   0.166  -0.000   0.000
 -0.000   0.000   0.000   1.189  -0.000   0.000   0.070   0.000
 -0.000   0.000   0.000   0.000   1.809   0.000   0.000   0.166
  0.000   0.000   0.166   0.000  -0.000   0.017  -0.000   0.000
  0.000   0.000  -0.000   0.070   0.000   0.000   0.005   0.000
  0.000  -0.000   0.000   0.000   0.166   0.000   0.000   0.017


------------------------ aborting loop because EDIFF is reached ----------------------------------------


    CHARGE:  cpu time    0.0146: real time    0.0147
    FORLOC:  cpu time    0.0005: real time    0.0005
    FORNL :  cpu time    0.0558: real time    0.0560
    STRESS:  cpu time    0.2007: real time    0.2016
    FORCOR:  cpu time    0.0096: real time    0.0096
    FORHAR:  cpu time    0.0020: real time    0.0020
[...]
  2.9450  2.4503  0.9402  0.9402

 Free energy of the ion-electron system (eV)
  ---------------------------------------------------
  alpha Z        PSCENC =         3.11403508
  Ewald energy   TEWEN  =      1291.96564885
  -Hartree energ DENC   =     -1538.92191272
  -exchange      EXHF   =         0.00000000
  -V(xc)+E(xc)   XCENC  =        27.52733472
  PAW double counting   =       831.43023746     -832.79694176
  entropy T*S    EENTRO =        -0.00100300
  eigenvalues    EBANDS =       -95.06151135
  atomic energy  EATOM  =       294.29778662
  Solvation  Ediel_sol  =         0.00000000
  ---------------------------------------------------
  free energy    TOTEN  =       -18.44632609 eV

  energy without entropy =      -18.44532309  energy(sigma->0) =      -18.44582459


--------------------------------------------------------------------------------------------------------




--------------------------------------- Iteration      4(   6)  ---------------------------------------


    POTLOK:  cpu time    0.0091: real time    0.0093
    SETDIJ:  cpu time    0.0100: real time    0.0100
     EDDAV:  cpu time    0.0674: real time    0.0678
       DOS:  cpu time    0.0002: real time    0.0002
    --------------------------------------------
      LOOP:  cpu time    0.0867: real time    0.0873

 eigenvalue-minimisations  :   496
 total energy-change (2. order) : 0.2582965E-09  (-0.7022531E-14)
 number of electron       8.0000000 magnetization 
 augmentation part        0.1916235 magnetization 

 Free energy of the ion-electron system (eV)
  ---------------------------------------------------
  alpha Z        PSCENC =         3.11403508
  Ewald energy   TEWEN  =      1291.96564885
  -Hartree energ DENC   =     -1538.92191022
  -exchange      EXHF   =         0.00000000
  -V(xc)+E(xc)   XCENC  =        27.52733469
  PAW double counting   =       831.43000648     -832.79671077
  entropy T*S    EENTRO =        -0.00100300
  eigenvalues    EBANDS =       -95.06151381
  atomic energy  EATOM  =       294.29778662
  Solvation  Ediel_sol  =         0.00000000
  ---------------------------------------------------
  free energy    TOTEN  =       -18.44632609 eV

  energy without entropy =      -18.44532309  energy(sigma->0) =      -18.44582459


--------------------------------------------------------------------------------------------------------




 average (electrostatic) potential at core
  the test charge radii are     0.6991
  (the norm of the test charge is              1.0000)
       1 -58.1971       2 -58.1971
 
 
 
 E-fermi :  -2.7584     XC(G=0):  -2.1534     alpha+bet : -1.8996


 k-point     1 :       0.0000    0.0000    0.0000
  band No.  band energies     occupation 
      1     -22.2492      2.00000
      2     -10.3550      2.00000
      3      -5.7877      2.00000
      4      -5.7877      2.00000
      5       0.5200      0.00000
      6       1.3201      0.00000
      7       1.6833      0.00000
      8       2.5927      0.00000

 k-point     2 :       0.0667    0.0000    0.0000
  band No.  band energies     occupation 
      1     -22.1443      2.00000
      2     -10.2299      2.00000
      3      -6.2119      2.00000
      4      -6.0091      2.00000
      5       0.6623      0.00000
      6       1.4642      0.00000
      7       1.8292      0.00000
      8       2.7372      0.00000

 k-point     3 :       0.1333    0.0000    0.0000
  band No.  band energies     occupation 
      1     -21.8304      2.00000
      2      -9.8567      2.00000
      3      -7.3387      2.00000
      4      -6.5703      2.00000
      5       1.0891      0.00000
      6       1.8960      0.00000
      7       2.2668      0.00000
      8       3.1705      0.00000

 k-point     4 :       0.2000   -0.0000    0.0000
  band No.  band energies     occupation 
      1     -21.3096      2.00000
      2      -9.2424      2.00000
      3      -8.8838      2.00000
      4      -7.2721      2.00000
      5       1.7999      0.00000
      6       2.6129      0.00000
      7       2.9961      0.00000
      8       3.8900      0.00000

 k-point     5 :       0.2667   -0.0000    0.0000
  band No.  band energies     occupation 
      1     -20.5864      2.00000
      2     -10.6124      2.00000
      3      -8.4022      2.00000
      4      -7.9550      2.00000
      5       2.7925      0.00000
      6       3.5649      0.00000
      7       4.0165      0.00000
      8       4.0514      0.00000

 k-point     6 :       0.3333   -0.0000    0.0000
  band No.  band energies     occupation 
      1     -19.6683      2.00000
      2     -12.3732      2.00000
      3      -8.5232      2.00000
      4      -7.3691      2.00000
      5       2.1367      0.00000
      6       4.0566      0.00000
      7       4.9269      0.00000
      8       4.9325      0.00000

 k-point     7 :       0.4000   -0.0000    0.0000
  band No.  band energies     occupation 
      1     -18.5719      2.00000
      2     -14.0672      2.00000
      3      -8.9240      2.00000
      4      -6.2297      2.00000
      5       0.3966      0.00000
      6       4.7031      0.00000
      7       5.6380      0.00000
      8       6.4864      0.00000

 k-point     8 :       0.4667   -0.0000    0.0000
  band No.  band energies     occupation 
      1     -17.3768      2.00000
      2     -15.5709      2.00000
      3      -9.1303      2.00000
      4      -5.2774      2.00000
      5      -0.8754      0.00000
      6       4.6048      0.00000
      7       7.4367      0.00000
      8       8.3054      0.00000

 k-point     9 :       0.0667    0.0667    0.0000
  band No.  band energies     occupation 
      1     -21.9349      2.00000
      2      -9.9807      2.00000
      3      -6.9360      2.00000
      4      -6.4524      2.00000
      5       0.9469      0.00000
      6       1.7522      0.00000
      7       2.1209      0.00000
      8       3.0262      0.00000

 k-point    10 :       0.1333    0.0667    0.0000
  band No.  band energies     occupation 
      1     -21.5175      2.00000
      2      -9.4867      2.00000
      3      -8.1829      2.00000
      4      -7.1750      2.00000
      5       1.5160      0.00000
      6       2.3270      0.00000
      7       2.7045      0.00000
      8       3.6032      0.00000

 k-point    11 :       0.2000    0.0667    0.0000
  band No.  band energies     occupation 
      1     -20.8955      2.00000
      2      -9.7611      2.00000
      3      -8.7582      2.00000
      4      -7.9278      2.00000
      5       2.3684      0.00000
      6       3.1825      0.00000
      7       3.5796      0.00000
      8       4.4502      0.00000

 k-point    12 :       0.2667    0.0667    0.0000
  band No.  band energies     occupation 
      1     -20.0747      2.00000
      2     -11.4751      2.00000
      3      -8.5849      2.00000
      4      -7.8173      2.00000
      5       2.9716      0.00000
      6       3.5006      0.00000
      7       4.3540      0.00000
      8       4.7452      0.00000

 k-point    13 :       0.3333    0.0667    0.0000
  band No.  band energies     occupation 
      1     -19.0661      2.00000
      2     -13.1885      2.00000
      3      -9.0847      2.00000
      4      -6.7147      2.00000
      5       1.1934      0.00000
      6       4.8858      0.00000
      7       5.3083      0.00000
      8       5.7681      0.00000

 k-point    14 :       0.4000    0.0667    0.0000
  band No.  band energies     occupation 
      1     -17.9006      2.00000
      2     -14.8000      2.00000
      3      -9.3949      2.00000
      4      -5.6027      2.00000
      5      -0.3649      0.00000
      6       5.1105      0.00000
      7       6.6073      0.00000
      8       7.4514      0.00000

 k-point    15 :       0.4667    0.0667    0.0000
  band No.  band energies     occupation 
      1     -16.9520      2.00000
      2     -15.9009      2.00000
      3      -9.4998      2.00000
      4      -5.0169      2.00000
      5      -1.1057      0.00000
      6       5.0591      0.00000
      7       8.4477      0.00000
      8       8.6075      0.00000

 k-point    16 :       0.1333    0.1333    0.0000
  band No.  band energies     occupation 
      1     -20.9989      2.00000
      2      -9.2815      2.00000
      3      -8.8778      2.00000
      4      -8.1324      2.00000
      5       2.2272      0.00000
      6       3.0433      0.00000
      7       3.4339      0.00000
      8       4.3230      0.00000

 k-point    17 :       0.2000    0.1333    0.0000
  band No.  band energies     occupation 
      1     -20.2793      2.00000
      2     -10.6725      2.00000
      3      -9.0342      2.00000
      4      -8.0446      2.00000
      5       3.2204      0.00000
      6       3.5148      0.00000
      7       4.0491      0.00000
      8       4.4549      0.00000

 k-point    18 :       0.2667    0.1333    0.0000
  band No.  band energies     occupation 
      1     -19.3670      2.00000
      2     -12.2583      2.00000
      3      -9.7055      2.00000
      4      -7.0186      2.00000
      5       1.8537      0.00000
      6       4.4906      0.00000
      7       5.3195      0.00000
      8       5.7665      0.00000

 k-point    19 :       0.3333    0.1333    0.0000
  band No.  band energies     occupation 
      1     -18.2801      2.00000
      2     -13.8646      2.00000
      3     -10.1484      2.00000
      4      -5.8791      2.00000
      5       0.2331      0.00000
      6       6.0142      0.00000
      7       6.4654      0.00000
      8       6.8463      0.00000

 k-point    20 :       0.4000    0.1333    0.0000
  band No.  band energies     occupation 
      1     -17.1000      2.00000
      2     -15.3219      2.00000
      3     -10.3696      2.00000
      4      -4.9046      2.00000
      5      -0.9998      0.00000
      6       6.3273      0.00000
      7       7.8349      0.00000
      8       8.5159      0.00000

 k-point    21 :       0.2000    0.2000    0.0000
  band No.  band energies     occupation 
      1     -19.4680      2.00000
      2     -11.6857      2.00000
      3     -10.2009      2.00000
      4      -7.1219      2.00000
      5       2.1243      0.00000
      6       4.3513      0.00000
      7       5.1631      0.00000
      8       5.6217      0.00000

 k-point    22 :       0.2667    0.2000    0.0000
  band No.  band energies     occupation 
      1     -18.4748      2.00000
      2     -12.9651      2.00000
      3     -11.0181      2.00000
      4      -6.0331      2.00000
      5       0.6545      0.00000
      6       5.7528      0.00000
      7       6.5214      0.00000
      8       7.0787      0.00000

 k-point    23 :       0.3333    0.2000    0.0000
  band No.  band energies     occupation 
      1     -17.3343      2.00000
      2     -14.3844      2.00000
      3     -11.4444      2.00000
      4      -4.9017      2.00000
      5      -0.7279      0.00000
      6       7.3981      0.00000
      7       7.9338      0.00000
      8       8.1129      0.00000

 k-point    24 :       0.4000    0.2000    0.0000
  band No.  band energies     occupation 
      1     -16.4124      2.00000
      2     -15.4151      2.00000
      3     -11.5771      2.00000
      4      -4.2559      2.00000
      5      -1.4619      0.00000
      6       8.0306      0.00000
      7       8.5662      0.00000
      8       9.1444      0.00000

 k-point    25 :       0.2667    0.2667    0.0000
  band No.  band energies     occupation 
      1     -17.4215      2.00000
      2     -13.7480      2.00000
      3     -12.1352      2.00000
      4      -4.9142      2.00000
      5      -0.5862      0.00000
      6       7.2663      0.00000
      7       7.7011      0.00000
      8       8.6789      0.00000

 k-point    26 :       0.3333    0.2667    0.0000
  band No.  band energies     occupation 
      1     -16.2891      2.00000
      2     -14.7895      2.00000
      3     -12.6745      2.00000
      4      -3.8389      2.00000
      5      -1.7165      0.00000
      6       8.0493      0.00000
      7       8.9488      0.00000
      8       9.7792      0.00000

 k-point    27 :       0.3333    0.3333    0.0000
  band No.  band energies     occupation 
      1     -15.3389      2.00000
      2     -15.3389      2.00000
      3     -13.2824      2.00000
      4      -2.7584      1.00000
      5      -2.7584      1.00000
      6       7.8564      0.00000
      7      10.1109      0.00000
      8      10.1109      0.00000


--------------------------------------------------------------------------------------------------------


 soft charge-density along one line, spin component           1
         0         1         2         3         4         5         6         7         8         9
 total charge-density along one line
 
 pseudopotential strength for first ion, spin component:           1
 10.220  13.590   0.000   0.000  -0.000  -0.000  -0.000   0.000
 13.590  18.072   0.000   0.000  -0.000  -0.000  -0.000   0.000
  0.000   0.000  -4.348  -0.000  -0.000   8.505   0.000   0.000
  0.000   0.000  -0.000  -4.341  -0.000   0.000   8.495   0.000
 -0.000  -0.000  -0.000  -0.000  -4.348   0.000   0.000   8.505
 -0.000  -0.000   8.505   0.000   0.000 -18.772  -0.000  -0.000
 -0.000  -0.000   0.000   8.495   0.000  -0.000 -18.763  -0.000
  0.000   0.000   0.000   0.000   8.505  -0.000  -0.000 -18.772
 total augmentation occupancy for first ion, spin component:           1
  8.015  -3.542   0.000   0.000   0.000   0.000  -0.000   0.000
 -3.542   1.623   0.000   0.000   0.000   0.000   0.000   0.000
 -0.000   0.000   1.810  -0.000   0.000   0.166   0.000   0.000
  0.000   0.000  -0.000   1.189  -0.000   0.000   0.070  -0.000
  0.000  -0.000   0.000  -0.000   1.810   0.000  -0.000   0.166
 -0.000   0.000   0.166  -0.000  -0.000   0.017  -0.000   0.000
 -0.000  -0.000   0.000   0.070  -0.000   0.000   0.005   0.000
  0.000   0.000   0.000  -0.000   0.166   0.000   0.000   0.017


------------------------ aborting loop because EDIFF is reached ----------------------------------------


    CHARGE:  cpu time    0.0147: real time    0.0148
    FORLOC:  cpu time    0.0005: real time    0.0005
    FORNL :  cpu time    0.0558: real time    0.0561
    STRESS:  cpu time    0.2000: real time    0.2009
    FORCOR:  cpu time    0.0096: real time    0.0097
    FORHAR:  cpu time    0.0020: real time    0.0020
    MIXING:  cpu time    0.0005: real time    0.0005
    OFIELD:  cpu time    0.0000: real time    0.0000

  FORCE on cell =-STRESS in cart. coord.  units (eV):
  Direction    XX          YY          ZZ          XY          YZ          ZX
  --------------------------------------------------------------------------------------
  Alpha Z     3.11404     3.11404     3.11404
  Ewald    1560.59706  1560.59706 -1829.22849    -0.00000     0.00000     0.00000
  Hartree  1527.58142  1527.58142 -1516.24107    -0.00000    -0.00000    -0.00000
  E(xc)     -29.69250   -29.69250   -30.80547    -0.00000    -0.00000    -0.00000
  Local   -3173.65489 -3173.65490  3243.03166    -0.00001     0.00000     0.00000
  n-local    -6.84368    -7.37482    -6.49115    -0.31806    -0.00000    -0.00000
  augment    -0.77644    -0.77644    -0.71631     0.00001    -0.00000    -0.00000
  Kinetic   117.93618   121.94496   137.32591     3.15590     0.00000     0.00000
  Fock        0.00000     0.00000     0.00000     0.00000     0.00000     0.00000
  -------------------------------------------------------------------------------------
  Total      -0.00000    -0.00000    -0.01089    -0.00000    -0.00000     0.00000
  in kB      -0.00004    -0.00004    -0.16529    -0.00000    -0.00000     0.00000
  external pressure =       -0.06 kB  Pullay stress =        0.00 kB


 VOLUME and BASIS-vectors are now :
 -----------------------------------------------------------------------------
  energy-cutoff  :      520.00
  volume of cell :      105.52
      direct lattice vectors                 reciprocal lattice vectors
     2.468215270  0.000000000  0.000000000     0.405151047  0.233914066  0.000000000
    -1.234107635  2.137537125  0.000000000     0.000000000  0.467828132  0.000000000
     0.000000000  0.000000000 20.000000000     0.000000000  0.000000000  0.050000000

  length of vectors
     2.468215270  2.468215270 20.000000000     0.467828132  0.467828132  0.050000000


 FORCES acting on ions
    electron-ion (+dipol)            ewald-force                    non-local-force                 convergence-correction
 -----------------------------------------------------------------------------------------------
   -.504E-07 0.291E-07 -.730E-11   0.125E-10 -.721E-11 -.384E-22   0.197E-15 0.437E-17 0.000E+00   -.125E-10 0.724E-11 -.369E-12
   0.504E-07 -.291E-07 0.130E-12   -.125E-10 0.720E-11 0.433E-22   -.191E-15 -.367E-17 -.505E-28   0.125E-10 -.724E-11 -.369E-12
 -----------------------------------------------------------------------------------------------
   0.662E-14 -.178E-13 -.717E-11   -.222E-15 -.103E-13 0.491E-23   0.650E-17 0.696E-18 -.505E-28   -.773E-16 0.897E-15 -.738E-12
 
 
 POSITION                                       TOTAL-FORCE (eV/Angst)
 -----------------------------------------------------------------------------------
      1.23411      0.71251     10.00000         0.000000      0.000000      0.000000
      0.00000      1.42502     10.00000        -0.000000     -0.000000     -0.000000
 -----------------------------------------------------------------------------------
    total drift:                                0.000000     -0.000000     -0.000000


--------------------------------------------------------------------------------------------------------



  FREE ENERGIE OF THE ION-ELECTRON SYSTEM (eV)
  ---------------------------------------------------
  free  energy   TOTEN  =       -18.44632609 eV

  energy  without entropy=      -18.44532309  energy(sigma->0) =      -18.44582459
 
 d Force = 0.0000000E+00[ 0.000E+00, 0.000E+00]  d Energy = 0.6809842E-09-0.681E-09
 d Force = 0.0000000E+00[ 0.000E+00, 0.000E+00]  d Ewald  = 0.2815801E-01-0.282E-01


--------------------------------------------------------------------------------------------------------


    POTLOK:  cpu time    0.0186: real time    0.0187


--------------------------------------------------------------------------------------------------------


 stress matrix after NEB project (eV)
     -0.00000     -0.00000      0.00000
     -0.00000     -0.00000     -0.00000
      0.00000     -0.00000     -0.01089
  FORCES: max atom, RMS     0.000000    0.000000
  FORCE total and by dimension    0.000000    0.000000
  Stress total and by dimension    0.010886    0.010886


--------------------------------------------------------------------------------------------------------


  
 reached required accuracy - stopping structural energy minimisation
 writing wavefunctions
     LOOP+:  cpu time    0.9403: real time    1.8558
    4ORBIT:  cpu time    0.0000: real time    0.0000

 total amount of memory used by VASP MPI-rank0    39952. kBytes
=======================================================================

   base      :      30000. kBytes
   nonl-proj :       1689. kBytes
   fftplans  :       5213. kBytes
   grid      :       2211. kBytes
   one-center:          3. kBytes
   wavefun   :        836. kBytes
 
  
  
 General timing and accounting informations for this job:
 ========================================================
  
                  Total CPU time used (sec):        8.006
                            User time (sec):        7.207
                          System time (sec):        0.799
                         Elapsed time (sec):       10.545
  
                   Maximum memory used (kb):      145420.
                   Average memory used (kb):           0.
  
                          Minor page faults:       196895
                          Major page faults:            0
                 Voluntary context switches:          756
