<?xml version="1.0" encoding="ISO-8859-1"?>
<modeling>
 <generator>
  <i name="program" type="string">vasp </i>
  <i name="version" type="string">5.4.4.18Apr17-6-g9f103f2a35  </i>
  <i name="subversion" type="string">(build Dec 24 2020 13:49:33) complex            parallel </i>
  <i name="platform" type="string">LinuxIFC </i>
  <i name="date" type="string">2022 01 07 </i>
  <i name="time" type="string">14:21:00 </i>
 </generator>
 <incar>
  <i type="int" name="ISTART">     1</i>
  <i type="string" name="PREC">accurate       (precision level)</i>
  <i type="logical" name="ADDGRID"> T  </i>
  <i type="int" name="NELM">    60</i>
  <i type="int" name="NELMIN">     6</i>
  <i type="int" name="IBRION">     2</i>
  <i name="EDIFF">      0.00000001</i>
  <i name="EDIFFG">     -0.00010000</i>
  <i type="int" name="NSW">   100</i>
  <i type="int" name="ISIF">     3</i>
  <i name="ENCUT">    520.00000000</i>
  <i type="int" name="ISMEAR">     0</i>
  <i name="SIGMA">      0.10000000</i>
  <i type="logical" name="LWAVE"> T  </i>
  <i type="logical" name="LCHARG"> T  </i>
  <v type="int" name="KPOINT_BSE">    -1     0     0     0</v>
  <i type="int" name="NELM">    60</i>
 </incar>
 <structure name="primitive_cell" >
  <crystal>
   <varray name="basis" >
    <v>       2.46881640       0.00000000       0.00000000 </v>
    <v>      -1.23440820       2.13805772       0.00000000 </v>
    <v>       0.00000000       0.00000000      20.00000000 </v>
   </varray>
   <i name="volume">    105.56943914 </i>
   <varray name="rec_basis" >
    <v>       0.40505240       0.23385711       0.00000000 </v>
    <v>       0.00000000       0.46771422       0.00000000 </v>
    <v>       0.00000000       0.00000000       0.05000000 </v>
   </varray>
  </crystal>
  <varray name="positions" >
   <v>      -0.33333333       0.33333333      -0.50000000 </v>
   <v>       0.33333333      -0.33333333      -0.50000000 </v>
  </varray>
 </structure>
 <varray name="primitive_index" >
  <v type="int" >        1 </v>
  <v type="int" >        2 </v>
 </varray>
 <kpoints>
  <generation param="Gamma">
   <v type="int" name="divisions">      15       15        1 </v>
   <v name="usershift">      0.00000000       0.00000000       0.00000000 </v>
   <v name="genvec1">      0.06666667       0.00000000       0.00000000 </v>
   <v name="genvec2">      0.00000000       0.06666667       0.00000000 </v>
   <v name="genvec3">      0.00000000       0.00000000       1.00000000 </v>
   <v name="shift">      0.00000000       0.00000000       0.00000000 </v>
  </generation>
  <varray name="kpointlist" >
   <v>       0.00000000       0.00000000       0.00000000 </v>
   <v>       0.06666667       0.00000000       0.00000000 </v>
   <v>       0.13333333       0.00000000       0.00000000 </v>
   <v>       0.20000000      -0.00000000       0.00000000 </v>
   <v>       0.26666667      -0.00000000       0.00000000 </v>
   <v>       0.33333333      -0.00000000       0.00000000 </v>
   <v>       0.40000000      -0.00000000       0.00000000 </v>
   <v>       0.46666667      -0.00000000       0.00000000 </v>
   <v>       0.06666667       0.06666667       0.00000000 </v>
   <v>       0.13333333       0.06666667       0.00000000 </v>
   <v>       0.20000000       0.06666667       0.00000000 </v>
   <v>       0.26666667       0.06666667       0.00000000 </v>
   <v>       0.33333333       0.06666667       0.00000000 </v>
   <v>       0.40000000       0.06666667       0.00000000 </v>
   <v>       0.46666667       0.06666667       0.00000000 </v>
   <v>       0.13333333       0.13333333       0.00000000 </v>
   <v>       0.20000000       0.13333333       0.00000000 </v>
   <v>       0.26666667       0.13333333       0.00000000 </v>
   <v>       0.33333333       0.13333333       0.00000000 </v>
   <v>       0.40000000       0.13333333       0.00000000 </v>
   <v>       0.20000000       0.20000000       0.00000000 </v>
   <v>       0.26666667       0.20000000       0.00000000 </v>
   <v>       0.33333333       0.20000000       0.00000000 </v>
   <v>       0.40000000       0.20000000       0.00000000 </v>
   <v>       0.26666667       0.26666667       0.00000000 </v>
   <v>       0.33333333       0.26666667       0.00000000 </v>
   <v>       0.33333333       0.33333333       0.00000000 </v>
  </varray>
  <varray name="weights" >
   <v>       0.00444444 </v>
   <v>       0.02666667 </v>
   <v>       0.02666667 </v>
   <v>       0.02666667 </v>
   <v>       0.02666667 </v>
   <v>       0.02666667 </v>
   <v>       0.02666667 </v>
   <v>       0.02666667 </v>
   <v>       0.02666667 </v>
   <v>       0.05333333 </v>
   <v>       0.05333333 </v>
   <v>       0.05333333 </v>
   <v>       0.05333333 </v>
   <v>       0.05333333 </v>
   <v>       0.02666667 </v>
   <v>       0.02666667 </v>
   <v>       0.05333333 </v>
   <v>       0.05333333 </v>
   <v>       0.05333333 </v>
   <v>       0.05333333 </v>
   <v>       0.02666667 </v>
   <v>       0.05333333 </v>
   <v>       0.05333333 </v>
   <v>       0.02666667 </v>
   <v>       0.02666667 </v>
   <v>       0.05333333 </v>
   <v>       0.00888889 </v>
  </varray>
 </kpoints>
 <parameters>
  <separator name="general" >
   <i type="string" name="SYSTEM">unknown system</i>
   <i type="logical" name="LCOMPAT"> F  </i>
  </separator>
  <separator name="electronic" >
   <i type="string" name="PREC">accura</i>
   <i name="ENMAX">    520.00000000</i>
   <i name="ENAUG">    644.87300000</i>
   <i name="EDIFF">      0.00000001</i>
   <i type="int" name="IALGO">    38</i>
   <i type="int" name="IWAVPR">    11</i>
   <i type="int" name="NBANDS">     8</i>
   <i name="NELECT">      8.00000000</i>
   <i type="int" name="TURBO">     0</i>
   <i type="int" name="IRESTART">     0</i>
   <i type="int" name="NREBOOT">     0</i>
   <i type="int" name="NMIN">     0</i>
   <i name="EREF">      0.00000000</i>
   <separator name="electronic smearing" >
    <i type="int" name="ISMEAR">     0</i>
    <i name="SIGMA">      0.10000000</i>
    <i name="KSPACING">      0.50000000</i>
    <i type="logical" name="KGAMMA"> T  </i>
   </separator>
   <separator name="electronic projectors" >
    <i type="logical" name="LREAL"> F  </i>
    <v name="ROPT">      0.00000000</v>
    <i type="int" name="LMAXPAW">  -100</i>
    <i type="int" name="LMAXMIX">     2</i>
    <i type="logical" name="NLSPLINE"> F  </i>
   </separator>
   <separator name="electronic startup" >
    <i type="int" name="ISTART">     0</i>
    <i type="int" name="ICHARG">     2</i>
    <i type="int" name="INIWAV">     1</i>
   </separator>
   <separator name="electronic spin" >
    <i type="int" name="ISPIN">     1</i>
    <i type="logical" name="LNONCOLLINEAR"> F  </i>
    <v name="MAGMOM">      1.00000000      1.00000000</v>
    <i name="NUPDOWN">     -1.00000000</i>
    <i type="logical" name="LSORBIT"> F  </i>
    <v name="SAXIS">      0.00000000      0.00000000      1.00000000</v>
    <i type="logical" name="LSPIRAL"> F  </i>
    <v name="QSPIRAL">      0.00000000      0.00000000      0.00000000</v>
    <i type="logical" name="LZEROZ"> F  </i>
   </separator>
   <separator name="electronic exchange-correlation" >
    <i type="logical" name="LASPH"> F  </i>
    <i type="logical" name="LMETAGGA"> F  </i>
   </separator>
   <separator name="electronic convergence" >
    <i type="int" name="NELM">    60</i>
    <i type="int" name="NELMDL">     0</i>
    <i type="int" name="NELMIN">     6</i>
    <i name="ENINI">    520.00000000</i>
    <separator name="electronic convergence detail" >
     <i type="logical" name="LDIAG"> T  </i>
     <i type="logical" name="LSUBROT"> F  </i>
     <i name="WEIMIN">      0.00100000</i>
     <i name="EBREAK">      0.00000000</i>
     <i name="DEPER">      0.30000000</i>
     <i type="int" name="NRMM">     4</i>
     <i name="TIME">      0.40000000</i>
    </separator>
   </separator>
   <separator name="electronic mixer" >
    <i name="AMIX">      0.40000000</i>
    <i name="BMIX">      1.00000000</i>
    <i name="AMIN">      0.10000000</i>
    <i name="AMIX_MAG">      1.60000000</i>
    <i name="BMIX_MAG">      1.00000000</i>
    <separator name="electronic mixer details" >
     <i type="int" name="IMIX">     4</i>
     <i type="logical" name="MIXFIRST"> F  </i>
     <i type="int" name="MAXMIX">   -45</i>
     <i name="WC">    100.00000000</i>
     <i type="int" name="INIMIX">     1</i>
     <i type="int" name="MIXPRE">     1</i>
     <i type="int" name="MREMOVE">     5</i>
    </separator>
   </separator>
   <separator name="electronic dipolcorrection" >
    <i type="logical" name="LDIPOL"> F  </i>
    <i type="logical" name="LMONO"> F  </i>
    <i type="int" name="IDIPOL">     0</i>
    <i name="EPSILON">      1.00000000</i>
    <v name="DIPOL">   -100.00000000   -100.00000000   -100.00000000</v>
    <i name="EFIELD">      0.00000000</i>
   </separator>
  </separator>
  <separator name="grids" >
   <i type="int" name="NGX">    18</i>
   <i type="int" name="NGY">    18</i>
   <i type="int" name="NGZ">   150</i>
   <i type="int" name="NGXF">    36</i>
   <i type="int" name="NGYF">    36</i>
   <i type="int" name="NGZF">   300</i>
   <i type="logical" name="ADDGRID"> T  </i>
  </separator>
  <separator name="ionic" >
   <i type="int" name="NSW">   100</i>
   <i type="int" name="IBRION">     2</i>
   <i type="int" name="MDALGO">     0</i>
   <i type="int" name="ISIF">     3</i>
   <i name="PSTRESS">      0.00000000</i>
   <i name="EDIFFG">     -0.00010000</i>
   <i type="int" name="NFREE">     1</i>
   <i name="POTIM">      0.50000000</i>
   <i name="SMASS">     -3.00000000</i>
   <i name="SCALEE">      1.00000000</i>
  </separator>
  <separator name="ionic md" >
   <i name="TEBEG">      0.00010000</i>
   <i name="TEEND">      0.00010000</i>
   <i type="int" name="NBLOCK">     1</i>
   <i type="int" name="KBLOCK">   100</i>
   <i type="int" name="NPACO">   256</i>
   <i name="APACO">     16.00000000</i>
  </separator>
  <separator name="symmetry" >
   <i type="int" name="ISYM">     2</i>
   <i name="SYMPREC">      0.00001000</i>
  </separator>
  <separator name="dos" >
   <i type="int" name="LORBIT">     0</i>
   <v name="RWIGS">     -1.00000000</v>
   <i type="int" name="NEDOS">   301</i>
   <i name="EMIN">     10.00000000</i>
   <i name="EMAX">    -10.00000000</i>
   <i name="EFERMI">      0.00000000</i>
  </separator>
  <separator name="writing" >
   <i type="int" name="NWRITE">     2</i>
   <i type="logical" name="LWAVE"> T  </i>
   <i type="logical" name="LDOWNSAMPLE"> F  </i>
   <i type="logical" name="LCHARG"> T  </i>
   <i type="logical" name="LPARD"> F  </i>
   <i type="logical" name="LVTOT"> F  </i>
   <i type="logical" name="LVHAR"> F  </i>
   <i type="logical" name="LELF"> F  </i>
   <i type="logical" name="LOPTICS"> F  </i>
   <v name="STM">      0.00000000      0.00000000      0.00000000      0.00000000      0.00000000      0.00000000      0.00000000</v>
  </separator>
  <separator name="performance" >
   <i type="int" name="NPAR">     4</i>
   <i type="int" name="NSIM">     4</i>
   <i type="int" name="NBLK">    -1</i>
   <i type="logical" name="LPLANE"> T  </i>
   <i type="logical" name="LSCALAPACK"> T  </i>
   <i type="logical" name="LSCAAWARE"> F  </i>
   <i type="logical" name="LSCALU"> F  </i>
   <i type="logical" name="LASYNC"> F  </i>
   <i type="logical" name="LORBITALREAL"> F  </i>
  </separator>
  <separator name="miscellaneous" >
   <i type="int" name="IDIOT">     3</i>
   <i type="int" name="ISPECIAL">     0</i>
   <i type="logical" name="LMUSIC"> F  </i>
   <v name="POMASS">     12.01100000</v>
   <v name="DARWINR">      0.00000000</v>
   <v name="DARWINV">      1.00000000</v>
   <i type="logical" name="LCORR"> T  </i>
  </separator>
  <i type="logical" name="GGA_COMPAT"> T  </i>
  <i type="logical" name="LBERRY"> F  </i>
  <i type="int" name="ICORELEVEL">     0</i>
  <i type="logical" name="LDAU"> F  </i>
  <i type="int" name="I_CONSTRAINED_M">     0</i>
  <separator name="electronic exchange-correlation" >
   <i type="string" name="GGA">--</i>
   <i type="int" name="VOSKOWN">     0</i>
   <i type="logical" name="LHFCALC"> F  </i>
   <i type="string" name="PRECFOCK"></i>
   <i type="logical" name="LSYMGRAD"> F  </i>
   <i type="logical" name="LHFONE"> F  </i>
   <i type="logical" name="LRHFCALC"> F  </i>
   <i type="logical" name="LTHOMAS"> F  </i>
   <i type="logical" name="LMODELHF"> F  </i>
   <i name="ENCUT4O">     -1.00000000</i>
   <i type="int" name="EXXOEP">     0</i>
   <i type="int" name="FOURORBIT">     0</i>
   <i name="AEXX">      0.00000000</i>
   <i name="HFALPHA">      0.00000000</i>
   <i name="MCALPHA">      0.00000000</i>
   <i name="ALDAX">      1.00000000</i>
   <i name="AGGAX">      1.00000000</i>
   <i name="ALDAC">      1.00000000</i>
   <i name="AGGAC">      1.00000000</i>
   <i type="int" name="NKREDX">     1</i>
   <i type="int" name="NKREDY">     1</i>
   <i type="int" name="NKREDZ">     1</i>
   <i type="logical" name="SHIFTRED"> F  </i>
   <i type="logical" name="ODDONLY"> F  </i>
   <i type="logical" name="EVENONLY"> F  </i>
   <i type="int" name="LMAXFOCK">     0</i>
   <i type="int" name="NMAXFOCKAE">     0</i>
   <i type="logical" name="LFOCKAEDFT"> F  </i>
   <i name="HFSCREEN">      0.00000000</i>
   <i name="HFSCREENC">      0.00000000</i>
   <i type="int" name="NBANDSGWLOW">     0</i>
  </separator>
  <separator name="vdW DFT" >
   <i type="logical" name="LUSE_VDW"> F  </i>
   <i name="Zab_VDW">     -0.84910000</i>
   <i name="PARAM1">      0.12340000</i>
   <i name="PARAM2">      1.00000000</i>
   <i name="PARAM3">      0.00000000</i>
  </separator>
  <separator name="model GW" >
   <i type="int" name="MODEL_GW">     0</i>
   <i name="MODEL_EPS0">     31.67083174</i>
   <i name="MODEL_ALPHA">      1.00000000</i>
  </separator>
  <separator name="linear response parameters" >
   <i type="logical" name="LEPSILON"> F  </i>
   <i type="logical" name="LRPA"> F  </i>
   <i type="logical" name="LNABLA"> F  </i>
   <i type="logical" name="LVEL"> F  </i>
   <i type="int" name="KINTER">     0</i>
   <i name="CSHIFT">      0.10000000</i>
   <i name="OMEGAMAX">     -1.00000000</i>
   <i name="DEG_THRESHOLD">      0.00200000</i>
   <i name="RTIME">     -0.10000000</i>
   <i name="WPLASMAI">      0.00000000</i>
   <v name="DFIELD">      0.00000000      0.00000000      0.00000000</v>
   <v name="WPLASMA">      0.00000000      0.00000000      0.00000000      0.00000000      0.00000000      0.00000000      0.00000000      0.00000000      0.00000000</v>
  </separator>
  <separator name="orbital magnetization" >
   <i type="logical" name="NUCIND"> F  </i>
   <v name="MAGPOS">      0.00000000      0.00000000      0.00000000</v>
   <i type="logical" name="LNICSALL"> T  </i>
   <i type="logical" name="ORBITALMAG"> F  </i>
   <i type="logical" name="LMAGBLOCH"> F  </i>
   <i type="logical" name="LCHIMAG"> F  </i>
   <i type="logical" name="LGAUGE"> T  </i>
   <i type="int" name="MAGATOM">     0</i>
   <v name="MAGDIPOL">      0.00000000      0.00000000      0.00000000</v>
   <v name="AVECCONST">      0.00000000      0.00000000      0.00000000</v>
  </separator>
  <separator name="response functions" >
   <i type="logical" name="LADDER"> F  </i>
   <i type="logical" name="LRPAFORCE"> F  </i>
   <i type="logical" name="LFXC"> F  </i>
   <i type="logical" name="LHARTREE"> T  </i>
   <i type="int" name="IBSE">     0</i>
   <v type="int" name="KPOINT">    -1     0     0     0</v>
   <i type="logical" name="LTCTE"> F  </i>
   <i type="logical" name="LTETE"> F  </i>
   <i type="logical" name="LTRIPLET"> F  </i>
   <i type="logical" name="LFXCEPS"> F  </i>
   <i type="logical" name="LFXHEG"> F  </i>
   <i type="int" name="NATURALO">     2</i>
   <i type="logical" name="L2ORDER"> F  </i>
   <i type="logical" name="LMP2LT"> F  </i>
   <i type="logical" name="LUSEW"> F  </i>
   <i name="ENCUTGW">     -2.00000000</i>
   <i name="ENCUTGWSOFT">     -2.00000000</i>
   <i name="ENCUTLF">     -1.00000000</i>
   <i type="int" name="LMAXMP2">    -1</i>
   <i name="SCISSOR">      0.00000000</i>
   <i type="int" name="NOMEGA">     0</i>
   <i type="int" name="NOMEGAR">     0</i>
   <i type="int" name="NBANDSGW">    -1</i>
   <i type="int" name="NBANDSO">    -1</i>
   <i type="int" name="NBANDSV">    -1</i>
   <i type="int" name="NELM">    60</i>
   <i type="int" name="NELMHF">     1</i>
   <i type="int" name="DIM">     3</i>
   <i type="int" name="ANTIRES">     0</i>
   <i name="OMEGAMAX">    -30.00000000</i>
   <i name="OMEGAMIN">    -30.00000000</i>
   <i name="OMEGATL">   -200.00000000</i>
   <i type="int" name="OMEGAGRID">   140</i>
   <i name="CSHIFT">     -0.10000000</i>
   <i type="logical" name="SELFENERGY"> F  </i>
   <i type="logical" name="LSPECTRAL"> F  </i>
   <i type="logical" name="LSPECTRALGW"> F  </i>
   <i type="logical" name="LSINGLES"> F  </i>
   <i type="logical" name="LFERMIGW"> F  </i>
   <i type="logical" name="ODDONLYGW"> F  </i>
   <i type="logical" name="EVENONLYGW"> F  </i>
   <i type="int" name="NKREDLFX">     1</i>
   <i type="int" name="NKREDLFY">     1</i>
   <i type="int" name="NKREDLFZ">     1</i>
   <i type="int" name="MAXMEM">  2800</i>
   <i type="int" name="TELESCOPE">     0</i>
   <i type="int" name="TAUPAR">     1</i>
   <i type="int" name="OMEGAPAR">    -1</i>
   <i name="LAMBDA">      1.00000000</i>
  </separator>
  <separator name="External order field" >
   <i name="OFIELD_KAPPA">      0.00000000</i>
   <v name="OFIELD_K">      0.00000000      0.00000000      0.00000000</v>
   <i name="OFIELD_Q6_NEAR">      0.00000000</i>
   <i name="OFIELD_Q6_FAR">      0.00000000</i>
   <i name="OFIELD_A">      0.00000000</i>
  </separator>
  <separator name="solvation model" >
   <i type="logical" name="LSOL"> F  </i>
  </separator>
 </parameters>
 <atominfo>
  <atoms>       2 </atoms>
  <types>       1 </types>
  <array name="atoms" >
   <dimension dim="1">ion</dimension>
   <field type="string">element</field>
   <field type="int">atomtype</field>
   <set>
    <rc><c>C </c><c>   1</c></rc>
    <rc><c>C </c><c>   1</c></rc>
   </set>
  </array>
  <array name="atomtypes" >
   <dimension dim="1">type</dimension>
   <field type="int">atomspertype</field>
   <field type="string">element</field>
   <field>mass</field>
   <field>valence</field>
   <field type="string">pseudopotential</field>
   <set>
    <rc><c>   2</c><c>C </c><c>     12.01100000</c><c>      4.00000000</c><c>  PAW_PBE C 08Apr2002                   </c></rc>
   </set>
  </array>
 </atominfo>
 <structure name="initialpos" >
  <crystal>
   <varray name="basis" >
    <v>       2.46881640       0.00000000       0.00000000 </v>
    <v>      -1.23440820       2.13805772       0.00000000 </v>
    <v>       0.00000000       0.00000000      20.00000000 </v>
   </varray>
   <i name="volume">    105.56943914 </i>
   <varray name="rec_basis" >
    <v>       0.40505240       0.23385711       0.00000000 </v>
    <v>       0.00000000       0.46771422       0.00000000 </v>
    <v>       0.00000000       0.00000000       0.05000000 </v>
   </varray>
  </crystal>
  <varray name="positions" >
   <v>       0.66666667       0.33333333       0.50000000 </v>
   <v>       0.33333333       0.66666667       0.50000000 </v>
  </varray>
 </structure>
 <calculation>
  <scstep>
   <time name="dav">    0.06    0.06</time>
   <time name="total">    0.09    0.12</time>
   <energy>
    <i name="alphaZ">      3.11251880 </i>
    <i name="ewald">   1291.20578142 </i>
    <i name="hartreedc">  -1504.01395233 </i>
    <i name="XCdc">     26.34443178 </i>
    <i name="pawpsdc">    217.04409276 </i>
    <i name="pawaedc">   -218.18290438 </i>
    <i name="eentropy">     -0.00470836 </i>
    <i name="bandstr">    -50.06021300 </i>
    <i name="atom">    294.29778662 </i>
    <i name="e_fr_energy">     59.74283331 </i>
    <i name="e_wo_entrp">     59.74754167 </i>
    <i name="e_0_energy">     59.74518749 </i>
   </energy>
  </scstep>
  <scstep>
   <time name="dav">    0.08    0.08</time>
   <time name="total">    0.08    0.08</time>
   <energy>
    <i name="e_fr_energy">    -14.73253190 </i>
    <i name="e_wo_entrp">    -14.73253190 </i>
    <i name="e_0_energy">    -14.73253190 </i>
   </energy>
  </scstep>
  <scstep>
   <time name="dav">    0.08    0.08</time>
   <time name="total">    0.08    0.08</time>
   <energy>
    <i name="e_fr_energy">    -19.66952479 </i>
    <i name="e_wo_entrp">    -19.66852195 </i>
    <i name="e_0_energy">    -19.66902337 </i>
   </energy>
  </scstep>
  <scstep>
   <time name="dav">    0.09    0.09</time>
   <time name="total">    0.09    0.09</time>
   <energy>
    <i name="e_fr_energy">    -19.70830296 </i>
    <i name="e_wo_entrp">    -19.70729996 </i>
    <i name="e_0_energy">    -19.70780146 </i>
   </energy>
  </scstep>
  <scstep>
   <time name="dav">    0.08    0.08</time>
   <time name="total">    0.10    0.10</time>
   <energy>
    <i name="e_fr_energy">    -19.70837681 </i>
    <i name="e_wo_entrp">    -19.70737380 </i>
    <i name="e_0_energy">    -19.70787531 </i>
   </energy>
  </scstep>
  <scstep>
   <time name="dav">    0.08    0.08</time>
   <time name="total">    0.11    0.11</time>
   <energy>
    <i name="e_fr_energy">    -18.80518638 </i>
    <i name="e_wo_entrp">    -18.80418338 </i>
    <i name="e_0_energy">    -18.80468488 </i>
   </energy>
  </scstep>
  <scstep>
   <time name="dav">    0.09    0.09</time>
   <time name="total">    0.12    0.13</time>
   <energy>
    <i name="e_fr_energy">    -18.45616902 </i>
    <i name="e_wo_entrp">    -18.45516602 </i>
    <i name="e_0_energy">    -18.45566752 </i>
   </energy>
  </scstep>
  <scstep>
   <time name="dav">    0.09    0.09</time>
   <time name="total">    0.13    0.13</time>
   <energy>
    <i name="e_fr_energy">    -18.44777049 </i>
    <i name="e_wo_entrp">    -18.44676748 </i>
    <i name="e_0_energy">    -18.44726898 </i>
   </energy>
  </scstep>
  <scstep>
   <time name="dav">    0.08    0.08</time>
   <time name="total">    0.12    0.12</time>
   <energy>
    <i name="e_fr_energy">    -18.44680952 </i>
    <i name="e_wo_entrp">    -18.44580652 </i>
    <i name="e_0_energy">    -18.44630802 </i>
   </energy>
  </scstep>
  <scstep>
   <time name="dav">    0.08    0.08</time>
   <time name="total">    0.11    0.11</time>
   <energy>
    <i name="e_fr_energy">    -18.44419835 </i>
    <i name="e_wo_entrp">    -18.44319534 </i>
    <i name="e_0_energy">    -18.44369685 </i>
   </energy>
  </scstep>
  <scstep>
   <time name="dav">    0.07    0.07</time>
   <time name="total">    0.11    0.11</time>
   <energy>
    <i name="e_fr_energy">    -18.44501274 </i>
    <i name="e_wo_entrp">    -18.44400974 </i>
    <i name="e_0_energy">    -18.44451124 </i>
   </energy>
  </scstep>
  <scstep>
   <time name="dav">    0.07    0.07</time>
   <time name="total">    0.10    0.10</time>
   <energy>
    <i name="e_fr_energy">    -18.44527482 </i>
    <i name="e_wo_entrp">    -18.44427181 </i>
    <i name="e_0_energy">    -18.44477332 </i>
   </energy>
  </scstep>
  <scstep>
   <time name="dav">    0.08    0.08</time>
   <time name="total">    0.11    0.11</time>
   <energy>
    <i name="e_fr_energy">    -18.44616064 </i>
    <i name="e_wo_entrp">    -18.44515763 </i>
    <i name="e_0_energy">    -18.44565914 </i>
   </energy>
  </scstep>
  <scstep>
   <time name="dav">    0.08    0.08</time>
   <time name="total">    0.12    0.12</time>
   <energy>
    <i name="e_fr_energy">    -18.44621471 </i>
    <i name="e_wo_entrp">    -18.44521171 </i>
    <i name="e_0_energy">    -18.44571321 </i>
   </energy>
  </scstep>
  <scstep>
   <time name="dav">    0.07    0.07</time>
   <time name="total">    0.10    0.10</time>
   <energy>
    <i name="e_fr_energy">    -18.44630338 </i>
    <i name="e_wo_entrp">    -18.44530038 </i>
    <i name="e_0_energy">    -18.44580188 </i>
   </energy>
  </scstep>
  <scstep>
   <time name="dav">    0.08    0.08</time>
   <time name="total">    0.12    0.12</time>
   <energy>
    <i name="e_fr_energy">    -18.44630852 </i>
    <i name="e_wo_entrp">    -18.44530551 </i>
    <i name="e_0_energy">    -18.44580702 </i>
   </energy>
  </scstep>
  <scstep>
   <time name="dav">    0.07    0.07</time>
   <time name="total">    0.10    0.10</time>
   <energy>
    <i name="e_fr_energy">    -18.44631302 </i>
    <i name="e_wo_entrp">    -18.44531002 </i>
    <i name="e_0_energy">    -18.44581152 </i>
   </energy>
  </scstep>
  <scstep>
   <time name="dav">    0.07    0.07</time>
   <time name="total">    0.10    0.10</time>
   <energy>
    <i name="e_fr_energy">    -18.44631668 </i>
    <i name="e_wo_entrp">    -18.44531367 </i>
    <i name="e_0_energy">    -18.44581517 </i>
   </energy>
  </scstep>
  <scstep>
   <time name="dav">    0.08    0.08</time>
   <time name="total">    0.11    0.11</time>
   <energy>
    <i name="e_fr_energy">    -18.44631713 </i>
    <i name="e_wo_entrp">    -18.44531412 </i>
    <i name="e_0_energy">    -18.44581562 </i>
   </energy>
  </scstep>
  <scstep>
   <time name="dav">    0.07    0.07</time>
   <time name="total">    0.11    0.11</time>
   <energy>
    <i name="e_fr_energy">    -18.44631754 </i>
    <i name="e_wo_entrp">    -18.44531454 </i>
    <i name="e_0_energy">    -18.44581604 </i>
   </energy>
  </scstep>
  <scstep>
   <time name="dav">    0.08    0.09</time>
   <time name="total">    0.12    0.12</time>
   <energy>
    <i name="e_fr_energy">    -18.44631756 </i>
    <i name="e_wo_entrp">    -18.44531455 </i>
    <i name="e_0_energy">    -18.44581606 </i>
   </energy>
  </scstep>
  <scstep>
   <time name="dav">    0.07    0.07</time>
   <time name="total">    0.10    0.10</time>
   <energy>
    <i name="e_fr_energy">    -18.44631757 </i>
    <i name="e_wo_entrp">    -18.44531456 </i>
    <i name="e_0_energy">    -18.44581607 </i>
   </energy>
  </scstep>
  <scstep>
   <time name="dav">    0.09    0.09</time>
   <time name="total">    0.11    0.11</time>
   <energy>
    <i name="alphaZ">      3.11251880 </i>
    <i name="ewald">   1291.20578142 </i>
    <i name="hartreedc">  -1538.15866009 </i>
    <i name="XCdc">     27.52292791 </i>
    <i name="pawpsdc">    830.51954863 </i>
    <i name="pawaedc">   -831.88589092 </i>
    <i name="eentropy">     -0.00100300 </i>
    <i name="bandstr">    -95.05932693 </i>
    <i name="atom">    294.29778662 </i>
    <i name="e_fr_energy">    -18.44631757 </i>
    <i name="e_wo_entrp">    -18.44531456 </i>
    <i name="e_0_energy">    -18.44581607 </i>
   </energy>
  </scstep>
  <structure>
   <crystal>
    <varray name="basis" >
     <v>       2.46881640       0.00000000       0.00000000 </v>
     <v>      -1.23440820       2.13805772       0.00000000 </v>
     <v>       0.00000000       0.00000000      20.00000000 </v>
    </varray>
    <i name="volume">    105.56943914 </i>
    <varray name="rec_basis" >
     <v>       0.40505240       0.23385711       0.00000000 </v>
     <v>       0.00000000       0.46771422       0.00000000 </v>
     <v>       0.00000000       0.00000000       0.05000000 </v>
    </varray>
   </crystal>
   <varray name="positions" >
    <v>       0.66666667       0.33333333       0.50000000 </v>
    <v>       0.33333333       0.66666667       0.50000000 </v>
   </varray>
  </structure>
  <varray name="forces" >
   <v>       0.00000000      -0.00000000       0.00000000 </v>
   <v>      -0.00000000       0.00000000      -0.00000000 </v>
  </varray>
  <varray name="stress" >
   <v>      -0.50185840       0.00000000       0.00000000 </v>
   <v>       0.00000000      -0.50185840      -0.00000000 </v>
   <v>       0.00000000       0.00000000      -0.16451173 </v>
  </varray>
  <energy>
   <i name="e_fr_energy">    -18.44631757 </i>
   <i name="e_wo_entrp">    -18.44581607 </i>
   <i name="e_0_energy">     -0.00100300 </i>
  </energy>
  <time name="totalsc">    3.00    3.28</time>
 </calculation>
 <calculation>
  <scstep>
   <time name="dav">    0.06    0.06</time>
   <time name="total">    0.10    0.14</time>
   <energy>
    <i name="alphaZ">      3.11749012 </i>
    <i name="ewald">   1293.69722340 </i>
    <i name="hartreedc">  -1540.59728637 </i>
    <i name="XCdc">     27.53697762 </i>
    <i name="pawpsdc">    830.51959270 </i>
    <i name="pawaedc">   -831.88593499 </i>
    <i name="eentropy">     -0.00100300 </i>
    <i name="bandstr">    -95.13114309 </i>
    <i name="atom">    294.29778662 </i>
    <i name="e_fr_energy">    -18.44629698 </i>
    <i name="e_wo_entrp">    -18.44529398 </i>
    <i name="e_0_energy">    -18.44579548 </i>
   </energy>
  </scstep>
  <scstep>
   <time name="dav">    0.07    0.07</time>
   <time name="total">    0.10    0.10</time>
   <energy>
    <i name="e_fr_energy">    -18.44628927 </i>
    <i name="e_wo_entrp">    -18.44528626 </i>
    <i name="e_0_energy">    -18.44578776 </i>
   </energy>
  </scstep>
  <scstep>
   <time name="dav">    0.07    0.07</time>
   <time name="total">    0.10    0.10</time>
   <energy>
    <i name="e_fr_energy">    -18.44628418 </i>
    <i name="e_wo_entrp">    -18.44528117 </i>
    <i name="e_0_energy">    -18.44578268 </i>
   </energy>
  </scstep>
  <scstep>
   <time name="dav">    0.08    0.08</time>
   <time name="total">    0.12    0.12</time>
   <energy>
    <i name="e_fr_energy">    -18.44628414 </i>
    <i name="e_wo_entrp">    -18.44528114 </i>
    <i name="e_0_energy">    -18.44578264 </i>
   </energy>
  </scstep>
  <scstep>
   <time name="dav">    0.07    0.07</time>
   <time name="total">    0.11    0.11</time>
   <energy>
    <i name="e_fr_energy">    -18.44628406 </i>
    <i name="e_wo_entrp">    -18.44528106 </i>
    <i name="e_0_energy">    -18.44578256 </i>
   </energy>
  </scstep>
  <scstep>
   <time name="dav">    0.06    0.06</time>
   <time name="total">    0.10    0.10</time>
   <energy>
    <i name="e_fr_energy">    -18.44628418 </i>
    <i name="e_wo_entrp">    -18.44528117 </i>
    <i name="e_0_energy">    -18.44578268 </i>
   </energy>
  </scstep>
  <scstep>
   <time name="dav">    0.06    0.06</time>
   <time name="total">    0.09    0.09</time>
   <energy>
    <i name="e_fr_energy">    -18.44628477 </i>
    <i name="e_wo_entrp">    -18.44528177 </i>
    <i name="e_0_energy">    -18.44578327 </i>
   </energy>
  </scstep>
  <scstep>
   <time name="dav">    0.08    0.08</time>
   <time name="total">    0.11    0.11</time>
   <energy>
    <i name="e_fr_energy">    -18.44628500 </i>
    <i name="e_wo_entrp">    -18.44528200 </i>
    <i name="e_0_energy">    -18.44578350 </i>
   </energy>
  </scstep>
  <scstep>
   <time name="dav">    0.07    0.07</time>
   <time name="total">    0.11    0.11</time>
   <energy>
    <i name="e_fr_energy">    -18.44628524 </i>
    <i name="e_wo_entrp">    -18.44528224 </i>
    <i name="e_0_energy">    -18.44578374 </i>
   </energy>
  </scstep>
  <scstep>
   <time name="dav">    0.08    0.08</time>
   <time name="total">    0.11    0.11</time>
   <energy>
    <i name="e_fr_energy">    -18.44628532 </i>
    <i name="e_wo_entrp">    -18.44528231 </i>
    <i name="e_0_energy">    -18.44578382 </i>
   </energy>
  </scstep>
  <scstep>
   <time name="dav">    0.08    0.08</time>
   <time name="total">    0.11    0.11</time>
   <energy>
    <i name="e_fr_energy">    -18.44628534 </i>
    <i name="e_wo_entrp">    -18.44528233 </i>
    <i name="e_0_energy">    -18.44578383 </i>
   </energy>
  </scstep>
  <scstep>
   <time name="dav">    0.07    0.07</time>
   <time name="total">    0.10    0.11</time>
   <energy>
    <i name="e_fr_energy">    -18.44628535 </i>
    <i name="e_wo_entrp">    -18.44528235 </i>
    <i name="e_0_energy">    -18.44578385 </i>
   </energy>
  </scstep>
  <scstep>
   <time name="dav">    0.07    0.07</time>
   <time name="total">    0.08    0.08</time>
   <energy>
    <i name="alphaZ">      3.11749012 </i>
    <i name="ewald">   1293.69722340 </i>
    <i name="hartreedc">  -1540.66072614 </i>
    <i name="XCdc">     27.53737089 </i>
    <i name="pawpsdc">    833.50600378 </i>
    <i name="pawaedc">   -834.87353374 </i>
    <i name="eentropy">     -0.00100300 </i>
    <i name="bandstr">    -95.06689728 </i>
    <i name="atom">    294.29778662 </i>
    <i name="e_fr_energy">    -18.44628535 </i>
    <i name="e_wo_entrp">    -18.44528235 </i>
    <i name="e_0_energy">    -18.44578385 </i>
   </energy>
  </scstep>
  <structure>
   <crystal>
    <varray name="basis" >
     <v>       2.46684716       0.00000000       0.00000000 </v>
     <v>      -1.23342358       2.13635231       0.00000000 </v>
     <v>       0.00000000       0.00000000      20.00000000 </v>
    </varray>
    <i name="volume">    105.40109229 </i>
    <varray name="rec_basis" >
     <v>       0.40537574       0.23404379       0.00000000 </v>
     <v>       0.00000000       0.46808759       0.00000000 </v>
     <v>       0.00000000       0.00000000       0.05000000 </v>
    </varray>
   </crystal>
   <varray name="positions" >
    <v>       0.66666667       0.33333333       0.50000000 </v>
    <v>       0.33333333       0.66666667       0.50000000 </v>
   </varray>
  </structure>
  <varray name="forces" >
   <v>      -0.00000000      -0.00000000      -0.00000000 </v>
   <v>       0.00000000       0.00000000       0.00000000 </v>
  </varray>
  <varray name="stress" >
   <v>       1.14648884       0.00000000      -0.00000000 </v>
   <v>       0.00000000       1.14648884      -0.00000000 </v>
   <v>       0.00000000      -0.00000000      -0.16672246 </v>
  </varray>
  <energy>
   <i name="e_fr_energy">    -18.44628535 </i>
   <i name="e_wo_entrp">    -18.44578385 </i>
   <i name="e_0_energy">     -0.00100300 </i>
  </energy>
  <time name="totalsc">    1.66    1.87</time>
 </calculation>
 <calculation>
  <scstep>
   <time name="dav">    0.06    0.06</time>
   <time name="total">    0.10    0.13</time>
   <energy>
    <i name="alphaZ">      3.11409127 </i>
    <i name="ewald">   1291.99380686 </i>
    <i name="hartreedc">  -1538.99338152 </i>
    <i name="XCdc">     27.52776647 </i>
    <i name="pawpsdc">    833.50571230 </i>
    <i name="pawaedc">   -834.87324220 </i>
    <i name="eentropy">     -0.00100300 </i>
    <i name="bandstr">    -95.01787012 </i>
    <i name="atom">    294.29778662 </i>
    <i name="e_fr_energy">    -18.44633332 </i>
    <i name="e_wo_entrp">    -18.44533032 </i>
    <i name="e_0_energy">    -18.44583182 </i>
   </energy>
  </scstep>
  <scstep>
   <time name="dav">    0.07    0.07</time>
   <time name="total">    0.10    0.10</time>
   <energy>
    <i name="e_fr_energy">    -18.44632899 </i>
    <i name="e_wo_entrp">    -18.44532599 </i>
    <i name="e_0_energy">    -18.44582749 </i>
   </energy>
  </scstep>
  <scstep>
   <time name="dav">    0.07    0.07</time>
   <time name="total">    0.10    0.10</time>
   <energy>
    <i name="e_fr_energy">    -18.44632509 </i>
    <i name="e_wo_entrp">    -18.44532208 </i>
    <i name="e_0_energy">    -18.44582358 </i>
   </energy>
  </scstep>
  <scstep>
   <time name="dav">    0.08    0.09</time>
   <time name="total">    0.12    0.12</time>
   <energy>
    <i name="e_fr_energy">    -18.44632524 </i>
    <i name="e_wo_entrp">    -18.44532224 </i>
    <i name="e_0_energy">    -18.44582374 </i>
   </energy>
  </scstep>
  <scstep>
   <time name="dav">    0.07    0.07</time>
   <time name="total">    0.10    0.10</time>
   <energy>
    <i name="e_fr_energy">    -18.44632537 </i>
    <i name="e_wo_entrp">    -18.44532236 </i>
    <i name="e_0_energy">    -18.44582387 </i>
   </energy>
  </scstep>
  <scstep>
   <time name="dav">    0.07    0.07</time>
   <time name="total">    0.11    0.11</time>
   <energy>
    <i name="e_fr_energy">    -18.44632544 </i>
    <i name="e_wo_entrp">    -18.44532244 </i>
    <i name="e_0_energy">    -18.44582394 </i>
   </energy>
  </scstep>
  <scstep>
   <time name="dav">    0.07    0.07</time>
   <time name="total">    0.10    0.10</time>
   <energy>
    <i name="e_fr_energy">    -18.44632592 </i>
    <i name="e_wo_entrp">    -18.44532292 </i>
    <i name="e_0_energy">    -18.44582442 </i>
   </energy>
  </scstep>
  <scstep>
   <time name="dav">    0.07    0.07</time>
   <time name="total">    0.10    0.11</time>
   <energy>
    <i name="e_fr_energy">    -18.44632599 </i>
    <i name="e_wo_entrp">    -18.44532299 </i>
    <i name="e_0_energy">    -18.44582449 </i>
   </energy>
  </scstep>
  <scstep>
   <time name="dav">    0.07    0.07</time>
   <time name="total">    0.10    0.10</time>
   <energy>
    <i name="e_fr_energy">    -18.44632606 </i>
    <i name="e_wo_entrp">    -18.44532306 </i>
    <i name="e_0_energy">    -18.44582456 </i>
   </energy>
  </scstep>
  <scstep>
   <time name="dav">    0.08    0.08</time>
   <time name="total">    0.11    0.11</time>
   <energy>
    <i name="e_fr_energy">    -18.44632609 </i>
    <i name="e_wo_entrp">    -18.44532308 </i>
    <i name="e_0_energy">    -18.44582459 </i>
   </energy>
  </scstep>
  <scstep>
   <time name="dav">    0.09    0.09</time>
   <time name="total">    0.11    0.11</time>
   <energy>
    <i name="alphaZ">      3.11409127 </i>
    <i name="ewald">   1291.99380686 </i>
    <i name="hartreedc">  -1538.95016586 </i>
    <i name="XCdc">     27.52749687 </i>
    <i name="pawpsdc">    831.46389989 </i>
    <i name="pawaedc">   -832.83061744 </i>
    <i name="eentropy">     -0.00100300 </i>
    <i name="bandstr">    -95.06162131 </i>
    <i name="atom">    294.29778662 </i>
    <i name="e_fr_energy">    -18.44632609 </i>
    <i name="e_wo_entrp">    -18.44532309 </i>
    <i name="e_0_energy">    -18.44582459 </i>
   </energy>
  </scstep>
  <structure>
   <crystal>
    <varray name="basis" >
     <v>       2.46819300       0.00000000       0.00000000 </v>
     <v>      -1.23409650       2.13751784       0.00000000 </v>
     <v>       0.00000000       0.00000000      20.00000000 </v>
    </varray>
    <i name="volume">    105.51613161 </i>
    <varray name="rec_basis" >
     <v>       0.40515470       0.23391618       0.00000000 </v>
     <v>       0.00000000       0.46783235       0.00000000 </v>
     <v>       0.00000000       0.00000000       0.05000000 </v>
    </varray>
   </crystal>
   <varray name="positions" >
    <v>       0.66666667       0.33333333       0.50000000 </v>
    <v>       0.33333333       0.66666667       0.50000000 </v>
   </varray>
  </structure>
  <varray name="forces" >
   <v>       0.00000000      -0.00000000      -0.00000000 </v>
   <v>      -0.00000000       0.00000000       0.00000000 </v>
  </varray>
  <varray name="stress" >
   <v>       0.01859905       0.00000000       0.00000000 </v>
   <v>      -0.00000000       0.01859905       0.00000000 </v>
   <v>      -0.00000000       0.00000000      -0.16510523 </v>
  </varray>
  <energy>
   <i name="e_fr_energy">    -18.44632609 </i>
   <i name="e_wo_entrp">    -18.44582459 </i>
   <i name="e_0_energy">     -0.00100300 </i>
  </energy>
  <time name="totalsc">    1.48    1.64</time>
 </calculation>
 <calculation>
  <scstep>
   <time name="dav">    0.07    0.07</time>
   <time name="total">    0.11    0.14</time>
   <energy>
    <i name="alphaZ">      3.11403508 </i>
    <i name="ewald">   1291.96564885 </i>
    <i name="hartreedc">  -1538.92256007 </i>
    <i name="XCdc">     27.52733851 </i>
    <i name="pawpsdc">    831.46291337 </i>
    <i name="pawaedc">   -832.82963122 </i>
    <i name="eentropy">     -0.00100300 </i>
    <i name="bandstr">    -95.06085425 </i>
    <i name="atom">    294.29778662 </i>
    <i name="e_fr_energy">    -18.44632611 </i>
    <i name="e_wo_entrp">    -18.44532310 </i>
    <i name="e_0_energy">    -18.44582460 </i>
   </energy>
  </scstep>
  <scstep>
   <time name="dav">    0.06    0.06</time>
   <time name="total">    0.10    0.10</time>
   <energy>
    <i name="e_fr_energy">    -18.44632610 </i>
    <i name="e_wo_entrp">    -18.44532310 </i>
    <i name="e_0_energy">    -18.44582460 </i>
   </energy>
  </scstep>
  <scstep>
   <time name="dav">    0.07    0.07</time>
   <time name="total">    0.10    0.10</time>
   <energy>
    <i name="e_fr_energy">    -18.44632609 </i>
    <i name="e_wo_entrp">    -18.44532309 </i>
    <i name="e_0_energy">    -18.44582459 </i>
   </energy>
  </scstep>
  <scstep>
   <time name="dav">    0.08    0.08</time>
   <time name="total">    0.11    0.11</time>
   <energy>
    <i name="e_fr_energy">    -18.44632609 </i>
    <i name="e_wo_entrp">    -18.44532309 </i>
    <i name="e_0_energy">    -18.44582459 </i>
   </energy>
  </scstep>
  <scstep>
   <time name="dav">    0.07    0.07</time>
   <time name="total">    0.10    0.10</time>
   <energy>
    <i name="e_fr_energy">    -18.44632609 </i>
    <i name="e_wo_entrp">    -18.44532309 </i>
    <i name="e_0_energy">    -18.44582459 </i>
   </energy>
  </scstep>
  <scstep>
   <time name="dav">    0.07    0.07</time>
   <time name="total">    0.09    0.09</time>
   <energy>
    <i name="alphaZ">      3.11403508 </i>
    <i name="ewald">   1291.96564885 </i>
    <i name="hartreedc">  -1538.92191022 </i>
    <i name="XCdc">     27.52733469 </i>
    <i name="pawpsdc">    831.43000648 </i>
    <i name="pawaedc">   -832.79671077 </i>
    <i name="eentropy">     -0.00100300 </i>
    <i name="bandstr">    -95.06151381 </i>
    <i name="atom">    294.29778662 </i>
    <i name="e_fr_energy">    -18.44632609 </i>
    <i name="e_wo_entrp">    -18.44532309 </i>
    <i name="e_0_energy">    -18.44582459 </i>
   </energy>
  </scstep>
  <structure>
   <crystal>
    <varray name="basis" >
     <v>       2.46821527       0.00000000       0.00000000 </v>
     <v>      -1.23410763       2.13753713       0.00000000 </v>
     <v>       0.00000000       0.00000000      20.00000000 </v>
    </varray>
    <i name="volume">    105.51803544 </i>
    <varray name="rec_basis" >
     <v>       0.40515105       0.23391407       0.00000000 </v>
     <v>       0.00000000       0.46782813       0.00000000 </v>
     <v>       0.00000000       0.00000000       0.05000000 </v>
    </varray>
   </crystal>
   <varray name="positions" >
    <v>       0.66666667       0.33333333       0.50000000 </v>
    <v>       0.33333333       0.66666667       0.50000000 </v>
   </varray>
  </structure>
  <varray name="forces" >
   <v>       0.00000000       0.00000000       0.00000000 </v>
   <v>      -0.00000000      -0.00000000      -0.00000000 </v>
  </varray>
  <varray name="stress" >
   <v>      -0.00003796      -0.00000000       0.00000000 </v>
   <v>      -0.00000000      -0.00003796      -0.00000000 </v>
   <v>       0.00000000      -0.00000000      -0.16529256 </v>
  </varray>
  <energy>
   <i name="e_fr_energy">    -18.44632609 </i>
   <i name="e_wo_entrp">    -18.44582459 </i>
   <i name="e_0_energy">     -0.00100300 </i>
  </energy>
  <time name="totalsc">    0.94    1.86</time>
  <eigenvalues>
   <array>
    <dimension dim="1">band</dimension>
    <dimension dim="2">kpoint</dimension>
    <dimension dim="3">spin</dimension>
    <field>eigene</field>
    <field>occ</field>
    <set>
     <set comment="spin 1">
      <set comment="kpoint 1">
       <r>  -22.2492    1.0000 </r>
       <r>  -10.3550    1.0000 </r>
       <r>   -5.7877    1.0000 </r>
       <r>   -5.7877    1.0000 </r>
       <r>    0.5200    0.0000 </r>
       <r>    1.3201    0.0000 </r>
       <r>    1.6833    0.0000 </r>
       <r>    2.5927    0.0000 </r>
      </set>
      <set comment="kpoint 2">
       <r>  -22.1443    1.0000 </r>
       <r>  -10.2299    1.0000 </r>
       <r>   -6.2119    1.0000 </r>
       <r>   -6.0091    1.0000 </r>
       <r>    0.6623    0.0000 </r>
       <r>    1.4642    0.0000 </r>
       <r>    1.8292    0.0000 </r>
       <r>    2.7372    0.0000 </r>
      </set>
      <set comment="kpoint 3">
       <r>  -21.8304    1.0000 </r>
       <r>   -9.8567    1.0000 </r>
       <r>   -7.3387    1.0000 </r>
       <r>   -6.5703    1.0000 </r>
       <r>    1.0891    0.0000 </r>
       <r>    1.8960    0.0000 </r>
       <r>    2.2668    0.0000 </r>
       <r>    3.1705    0.0000 </r>
      </set>
      <set comment="kpoint 4">
       <r>  -21.3096    1.0000 </r>
       <r>   -9.2424    1.0000 </r>
       <r>   -8.8838    1.0000 </r>
       <r>   -7.2721    1.0000 </r>
       <r>    1.7999    0.0000 </r>
       <r>    2.6129    0.0000 </r>
       <r>    2.9961    0.0000 </r>
       <r>    3.8900    0.0000 </r>
      </set>
      <set comment="kpoint 5">
       <r>  -20.5864    1.0000 </r>
       <r>  -10.6124    1.0000 </r>
       <r>   -8.4022    1.0000 </r>
       <r>   -7.9550    1.0000 </r>
       <r>    2.7925    0.0000 </r>
       <r>    3.5649    0.0000 </r>
       <r>    4.0165    0.0000 </r>
       <r>    4.0514    0.0000 </r>
      </set>
      <set comment="kpoint 6">
       <r>  -19.6683    1.0000 </r>
       <r>  -12.3732    1.0000 </r>
       <r>   -8.5232    1.0000 </r>
       <r>   -7.3691    1.0000 </r>
       <r>    2.1367    0.0000 </r>
       <r>    4.0566    0.0000 </r>
       <r>    4.9269    0.0000 </r>
       <r>    4.9325    0.0000 </r>
      </set>
      <set comment="kpoint 7">
       <r>  -18.5719    1.0000 </r>
       <r>  -14.0672    1.0000 </r>
       <r>   -8.9240    1.0000 </r>
       <r>   -6.2297    1.0000 </r>
       <r>    0.3966    0.0000 </r>
       <r>    4.7031    0.0000 </r>
       <r>    5.6380    0.0000 </r>
       <r>    6.4864    0.0000 </r>
      </set>
      <set comment="kpoint 8">
       <r>  -17.3768    1.0000 </r>
       <r>  -15.5709    1.0000 </r>
       <r>   -9.1303    1.0000 </r>
       <r>   -5.2774    1.0000 </r>
       <r>   -0.8754    0.0000 </r>
       <r>    4.6048    0.0000 </r>
       <r>    7.4367    0.0000 </r>
       <r>    8.3054    0.0000 </r>
      </set>
      <set comment="kpoint 9">
       <r>  -21.9349    1.0000 </r>
       <r>   -9.9807    1.0000 </r>
       <r>   -6.9360    1.0000 </r>
       <r>   -6.4524    1.0000 </r>
       <r>    0.9469    0.0000 </r>
       <r>    1.7522    0.0000 </r>
       <r>    2.1209    0.0000 </r>
       <r>    3.0262    0.0000 </r>
      </set>
      <set comment="kpoint 10">
       <r>  -21.5175    1.0000 </r>
       <r>   -9.4867    1.0000 </r>
       <r>   -8.1829    1.0000 </r>
       <r>   -7.1750    1.0000 </r>
       <r>    1.5160    0.0000 </r>
       <r>    2.3270    0.0000 </r>
       <r>    2.7045    0.0000 </r>
       <r>    3.6032    0.0000 </r>
      </set>
      <set comment="kpoint 11">
       <r>  -20.8955    1.0000 </r>
       <r>   -9.7611    1.0000 </r>
       <r>   -8.7582    1.0000 </r>
       <r>   -7.9278    1.0000 </r>
       <r>    2.3684    0.0000 </r>
       <r>    3.1825    0.0000 </r>
       <r>    3.5796    0.0000 </r>
       <r>    4.4502    0.0000 </r>
      </set>
      <set comment="kpoint 12">
       <r>  -20.0747    1.0000 </r>
       <r>  -11.4751    1.0000 </r>
       <r>   -8.5849    1.0000 </r>
       <r>   -7.8173    1.0000 </r>
       <r>    2.9716    0.0000 </r>
       <r>    3.5006    0.0000 </r>
       <r>    4.3540    0.0000 </r>
       <r>    4.7452    0.0000 </r>
      </set>
      <set comment="kpoint 13">
       <r>  -19.0661    1.0000 </r>
       <r>  -13.1885    1.0000 </r>
       <r>   -9.0847    1.0000 </r>
       <r>   -6.7147    1.0000 </r>
       <r>    1.1934    0.0000 </r>
       <r>    4.8858    0.0000 </r>
       <r>    5.3083    0.0000 </r>
       <r>    5.7681    0.0000 </r>
      </set>
      <set comment="kpoint 14">
       <r>  -17.9006    1.0000 </r>
       <r>  -14.8000    1.0000 </r>
       <r>   -9.3949    1.0000 </r>
       <r>   -5.6027    1.0000 </r>
       <r>   -0.3649    0.0000 </r>
       <r>    5.1105    0.0000 </r>
       <r>    6.6073    0.0000 </r>
       <r>    7.4514    0.0000 </r>
      </set>
      <set comment="kpoint 15">
       <r>  -16.9520    1.0000 </r>
       <r>  -15.9009    1.0000 </r>
       <r>   -9.4998    1.0000 </r>
       <r>   -5.0169    1.0000 </r>
       <r>   -1.1057    0.0000 </r>
       <r>    5.0591    0.0000 </r>
       <r>    8.4477    0.0000 </r>
       <r>    8.6075    0.0000 </r>
      </set>
      <set comment="kpoint 16">
       <r>  -20.9989    1.0000 </r>
       <r>   -9.2815    1.0000 </r>
       <r>   -8.8778    1.0000 </r>
       <r>   -8.1324    1.0000 </r>
       <r>    2.2272    0.0000 </r>
       <r>    3.0433    0.0000 </r>
       <r>    3.4339    0.0000 </r>
       <r>    4.3230    0.0000 </r>
      </set>
      <set comment="kpoint 17">
       <r>  -20.2793    1.0000 </r>
       <r>  -10.6725    1.0000 </r>
       <r>   -9.0342    1.0000 </r>
       <r>   -8.0446    1.0000 </r>
       <r>    3.2204    0.0000 </r>
       <r>    3.5148    0.0000 </r>
       <r>    4.0491    0.0000 </r>
       <r>    4.4549    0.0000 </r>
      </set>
      <set comment="kpoint 18">
       <r>  -19.3670    1.0000 </r>
       <r>  -12.2583    1.0000 </r>
       <r>   -9.7055    1.0000 </r>
       <r>   -7.0186    1.0000 </r>
       <r>    1.8537    0.0000 </r>
       <r>    4.4906    0.0000 </r>
       <r>    5.3195    0.0000 </r>
       <r>    5.7665    0.0000 </r>
      </set>
      <set comment="kpoint 19">
       <r>  -18.2801    1.0000 </r>
       <r>  -13.8646    1.0000 </r>
       <r>  -10.1484    1.0000 </r>
       <r>   -5.8791    1.0000 </r>
       <r>    0.2331    0.0000 </r>
       <r>    6.0142    0.0000 </r>
       <r>    6.4654    0.0000 </r>
       <r>    6.8463    0.0000 </r>
      </set>
      <set comment="kpoint 20">
       <r>  -17.1000    1.0000 </r>
       <r>  -15.3219    1.0000 </r>
       <r>  -10.3696    1.0000 </r>
       <r>   -4.9046    1.0000 </r>
       <r>   -0.9998    0.0000 </r>
       <r>    6.3273    0.0000 </r>
       <r>    7.8349    0.0000 </r>
       <r>    8.5159    0.0000 </r>
      </set>
      <set comment="kpoint 21">
       <r>  -19.4680    1.0000 </r>
       <r>  -11.6857    1.0000 </r>
       <r>  -10.2009    1.0000 </r>
       <r>   -7.1219    1.0000 </r>
       <r>    2.1243    0.0000 </r>
       <r>    4.3513    0.0000 </r>
       <r>    5.1631    0.0000 </r>
       <r>    5.6217    0.0000 </r>
      </set>
      <set comment="kpoint 22">
       <r>  -18.4748    1.0000 </r>
       <r>  -12.9651    1.0000 </r>
       <r>  -11.0181    1.0000 </r>
       <r>   -6.0331    1.0000 </r>
       <r>    0.6545    0.0000 </r>
       <r>    5.7528    0.0000 </r>
       <r>    6.5214    0.0000 </r>
       <r>    7.0787    0.0000 </r>
      </set>
      <set comment="kpoint 23">
       <r>  -17.3343    1.0000 </r>
       <r>  -14.3844    1.0000 </r>
       <r>  -11.4444    1.0000 </r>
       <r>   -4.9017    1.0000 </r>
       <r>   -0.7279    0.0000 </r>
       <r>    7.3981    0.0000 </r>
       <r>    7.9338    0.0000 </r>
       <r>    8.1129    0.0000 </r>
      </set>
      <set comment="kpoint 24">
       <r>  -16.4124    1.0000 </r>
       <r>  -15.4151    1.0000 </r>
       <r>  -11.5771    1.0000 </r>
       <r>   -4.2559    1.0000 </r>
       <r>   -1.4619    0.0000 </r>
       <r>    8.0306    0.0000 </r>
       <r>    8.5662    0.0000 </r>
       <r>    9.1444    0.0000 </r>
      </set>
      <set comment="kpoint 25">
       <r>  -17.4215    1.0000 </r>
       <r>  -13.7480    1.0000 </r>
       <r>  -12.1352    1.0000 </r>
       <r>   -4.9142    1.0000 </r>
       <r>   -0.5862    0.0000 </r>
       <r>    7.2663    0.0000 </r>
       <r>    7.7011    0.0000 </r>
       <r>    8.6789    0.0000 </r>
      </set>
      <set comment="kpoint 26">
       <r>  -16.2891    1.0000 </r>
       <r>  -14.7895    1.0000 </r>
       <r>  -12.6745    1.0000 </r>
       <r>   -3.8389    1.0000 </r>
       <r>   -1.7165    0.0000 </r>
       <r>    8.0493    0.0000 </r>
       <r>    8.9488    0.0000 </r>
       <r>    9.7792    0.0000 </r>
      </set>
      <set comment="kpoint 27">
       <r>  -15.3389    1.0000 </r>
       <r>  -15.3389    1.0000 </r>
       <r>  -13.2824    1.0000 </r>
       <r>   -2.7584    0.5000 </r>
       <r>   -2.7584    0.5000 </r>
       <r>    7.8564    0.0000 </r>
       <r>   10.1109    0.0000 </r>
       <r>   10.1109    0.0000 </r>
      </set>
     </set>
    </set>
   </array>
  </eigenvalues>
  <separator name="orbital magnetization" >
   <v name="MAGDIPOLOUT">      0.00000000      0.00000000      0.00000000</v>
  </separator>
  <dos>
   <i name="efermi">     -2.75843325 </i>
   <total>
    <array>
     <dimension dim="1">gridpoints</dimension>
     <dimension dim="2">spin</dimension>
     <field>energy</field>
     <field>total</field>
     <field>integrated</field>
     <set>
      <set comment="spin 1">
       <r>   -23.8672     0.0000     0.0000 </r>
       <r>   -23.7485     0.0000     0.0000 </r>
       <r>   -23.6299     0.0000     0.0000 </r>
       <r>   -23.5112     0.0000     0.0000 </r>
       <r>   -23.3926     0.0000     0.0000 </r>
       <r>   -23.2739     0.0000     0.0000 </r>
       <r>   -23.1553     0.0000     0.0000 </r>
       <r>   -23.0366     0.0000     0.0000 </r>
       <r>   -22.9180     0.0000     0.0000 </r>
       <r>   -22.7993     0.0000     0.0000 </r>
       <r>   -22.6807     0.0000     0.0000 </r>
       <r>   -22.5620     0.0000     0.0000 </r>
       <r>   -22.4434     0.0002     0.0000 </r>
       <r>   -22.3247     0.0129     0.0016 </r>
       <r>   -22.2060     0.1276     0.0167 </r>
       <r>   -22.0874     0.2954     0.0517 </r>
       <r>   -21.9687     0.2388     0.0801 </r>
       <r>   -21.8501     0.4226     0.1302 </r>
       <r>   -21.7314     0.2897     0.1646 </r>
       <r>   -21.6128     0.1157     0.1783 </r>
       <r>   -21.4941     0.4886     0.2363 </r>
       <r>   -21.3755     0.3898     0.2826 </r>
       <r>   -21.2568     0.2881     0.3167 </r>
       <r>   -21.1382     0.1102     0.3298 </r>
       <r>   -21.0195     0.2012     0.3537 </r>
       <r>   -20.9009     0.6258     0.4280 </r>
       <r>   -20.7822     0.4654     0.4832 </r>
       <r>   -20.6635     0.1096     0.4962 </r>
       <r>   -20.5449     0.2629     0.5274 </r>
       <r>   -20.4262     0.1369     0.5436 </r>
       <r>   -20.3076     0.2984     0.5790 </r>
       <r>   -20.1889     0.5462     0.6438 </r>
       <r>   -20.0703     0.5134     0.7047 </r>
       <r>   -19.9516     0.3916     0.7512 </r>
       <r>   -19.8330     0.0409     0.7561 </r>
       <r>   -19.7143     0.1116     0.7693 </r>
       <r>   -19.5957     0.2817     0.8027 </r>
       <r>   -19.4770     0.3062     0.8391 </r>
       <r>   -19.3584     0.6614     0.9175 </r>
       <r>   -19.2397     0.4067     0.9658 </r>
       <r>   -19.1210     0.2224     0.9922 </r>
       <r>   -19.0024     0.5375     1.0559 </r>
       <r>   -18.8837     0.1608     1.0750 </r>
       <r>   -18.7651     0.0059     1.0757 </r>
       <r>   -18.6464     0.0710     1.0841 </r>
       <r>   -18.5278     0.4615     1.1389 </r>
       <r>   -18.4091     0.6817     1.2198 </r>
       <r>   -18.2905     0.5256     1.2822 </r>
       <r>   -18.1718     0.4497     1.3355 </r>
       <r>   -18.0532     0.0698     1.3438 </r>
       <r>   -17.9345     0.2704     1.3759 </r>
       <r>   -17.8159     0.5114     1.4366 </r>
       <r>   -17.6972     0.1020     1.4487 </r>
       <r>   -17.5785     0.0089     1.4497 </r>
       <r>   -17.4599     0.2127     1.4750 </r>
       <r>   -17.3412     0.8978     1.5815 </r>
       <r>   -17.2226     0.6587     1.6597 </r>
       <r>   -17.1039     0.4579     1.7140 </r>
       <r>   -16.9853     0.5589     1.7803 </r>
       <r>   -16.8666     0.3017     1.8161 </r>
       <r>   -16.7480     0.0507     1.8221 </r>
       <r>   -16.6293     0.0014     1.8223 </r>
       <r>   -16.5107     0.0373     1.8267 </r>
       <r>   -16.3920     0.3035     1.8627 </r>
       <r>   -16.2734     0.6260     1.9370 </r>
       <r>   -16.1547     0.3554     1.9792 </r>
       <r>   -16.0361     0.0381     1.9837 </r>
       <r>   -15.9174     0.1708     2.0040 </r>
       <r>   -15.7987     0.2331     2.0316 </r>
       <r>   -15.6801     0.0603     2.0388 </r>
       <r>   -15.5614     0.2307     2.0661 </r>
       <r>   -15.4428     0.3927     2.1127 </r>
       <r>   -15.3241     0.8166     2.2096 </r>
       <r>   -15.2055     0.5762     2.2780 </r>
       <r>   -15.0868     0.0539     2.2844 </r>
       <r>   -14.9682     0.0134     2.2860 </r>
       <r>   -14.8495     0.3823     2.3313 </r>
       <r>   -14.7309     1.0721     2.4586 </r>
       <r>   -14.6122     0.3221     2.4968 </r>
       <r>   -14.4936     0.0636     2.5043 </r>
       <r>   -14.3749     0.4426     2.5568 </r>
       <r>   -14.2562     0.3715     2.6009 </r>
       <r>   -14.1376     0.1013     2.6129 </r>
       <r>   -14.0189     0.2797     2.6461 </r>
       <r>   -13.9003     0.3769     2.6909 </r>
       <r>   -13.7816     0.6547     2.7685 </r>
       <r>   -13.6630     0.3616     2.8114 </r>
       <r>   -13.5443     0.0525     2.8177 </r>
       <r>   -13.4257     0.0044     2.8182 </r>
       <r>   -13.3070     0.0931     2.8292 </r>
       <r>   -13.1884     0.4903     2.8874 </r>
       <r>   -13.0697     0.4823     2.9446 </r>
       <r>   -12.9511     0.4994     3.0039 </r>
       <r>   -12.8324     0.3634     3.0470 </r>
       <r>   -12.7137     0.2760     3.0798 </r>
       <r>   -12.5951     0.5217     3.1417 </r>
       <r>   -12.4764     0.1481     3.1592 </r>
       <r>   -12.3578     0.3044     3.1954 </r>
       <r>   -12.2391     0.6782     3.2758 </r>
       <r>   -12.1205     0.5735     3.3439 </r>
       <r>   -12.0018     0.1973     3.3673 </r>
       <r>   -11.8832     0.0145     3.3690 </r>
       <r>   -11.7645     0.0602     3.3762 </r>
       <r>   -11.6459     0.3426     3.4168 </r>
       <r>   -11.5272     0.6972     3.4995 </r>
       <r>   -11.4086     1.1608     3.6373 </r>
       <r>   -11.2899     0.4180     3.6869 </r>
       <r>   -11.1713     0.0305     3.6905 </r>
       <r>   -11.0526     0.2675     3.7222 </r>
       <r>   -10.9339     0.5128     3.7831 </r>
       <r>   -10.8153     0.1238     3.7978 </r>
       <r>   -10.6966     0.3634     3.8409 </r>
       <r>   -10.5780     0.7457     3.9294 </r>
       <r>   -10.4593     0.3102     3.9662 </r>
       <r>   -10.3407     0.5862     4.0357 </r>
       <r>   -10.2220     0.8300     4.1342 </r>
       <r>   -10.1034     0.9949     4.2523 </r>
       <r>    -9.9847     0.4925     4.3107 </r>
       <r>    -9.8661     0.4780     4.3674 </r>
       <r>    -9.7474     0.9397     4.4789 </r>
       <r>    -9.6288     0.9412     4.5906 </r>
       <r>    -9.5101     0.6924     4.6728 </r>
       <r>    -9.3914     1.1663     4.8111 </r>
       <r>    -9.2728     0.8765     4.9151 </r>
       <r>    -9.1541     0.8163     5.0120 </r>
       <r>    -9.0355     1.2816     5.1641 </r>
       <r>    -8.9168     1.1539     5.3010 </r>
       <r>    -8.7982     1.0038     5.4201 </r>
       <r>    -8.6795     0.7332     5.5071 </r>
       <r>    -8.5609     0.7400     5.5949 </r>
       <r>    -8.4422     0.6947     5.6773 </r>
       <r>    -8.3236     0.3588     5.7199 </r>
       <r>    -8.2049     0.4560     5.7740 </r>
       <r>    -8.0863     1.0138     5.8943 </r>
       <r>    -7.9676     1.1526     6.0310 </r>
       <r>    -7.8489     1.1545     6.1680 </r>
       <r>    -7.7303     0.6555     6.2458 </r>
       <r>    -7.6116     0.0995     6.2576 </r>
       <r>    -7.4930     0.0264     6.2607 </r>
       <r>    -7.3743     0.3603     6.3035 </r>
       <r>    -7.2557     0.8290     6.4018 </r>
       <r>    -7.1370     0.9837     6.5186 </r>
       <r>    -7.0184     0.9603     6.6325 </r>
       <r>    -6.8997     0.7125     6.7170 </r>
       <r>    -6.7811     0.3251     6.7556 </r>
       <r>    -6.6624     0.5860     6.8251 </r>
       <r>    -6.5438     0.4903     6.8833 </r>
       <r>    -6.4251     0.4071     6.9316 </r>
       <r>    -6.3065     0.2586     6.9623 </r>
       <r>    -6.1878     0.5308     7.0253 </r>
       <r>    -6.0691     0.6254     7.0995 </r>
       <r>    -5.9505     0.9383     7.2108 </r>
       <r>    -5.8318     0.7666     7.3018 </r>
       <r>    -5.7132     0.3635     7.3449 </r>
       <r>    -5.5945     0.4677     7.4004 </r>
       <r>    -5.4759     0.3769     7.4451 </r>
       <r>    -5.3572     0.0896     7.4558 </r>
       <r>    -5.2386     0.2609     7.4867 </r>
       <r>    -5.1199     0.1602     7.5057 </r>
       <r>    -5.0013     0.4322     7.5570 </r>
       <r>    -4.8826     1.3814     7.7209 </r>
       <r>    -4.7640     0.8021     7.8161 </r>
       <r>    -4.6453     0.0515     7.8222 </r>
       <r>    -4.5266     0.0003     7.8222 </r>
       <r>    -4.4080     0.0071     7.8231 </r>
       <r>    -4.2893     0.1360     7.8392 </r>
       <r>    -4.1707     0.2552     7.8695 </r>
       <r>    -4.0520     0.0515     7.8756 </r>
       <r>    -3.9334     0.0812     7.8852 </r>
       <r>    -3.8147     0.4881     7.9431 </r>
       <r>    -3.6961     0.3099     7.9799 </r>
       <r>    -3.5774     0.0194     7.9822 </r>
       <r>    -3.4588     0.0001     7.9822 </r>
       <r>    -3.3401     0.0000     7.9822 </r>
       <r>    -3.2215     0.0000     7.9822 </r>
       <r>    -3.1028     0.0000     7.9822 </r>
       <r>    -2.9841     0.0002     7.9822 </r>
       <r>    -2.8655     0.0193     7.9845 </r>
       <r>    -2.7468     0.1499     8.0023 </r>
       <r>    -2.6282     0.1205     8.0166 </r>
       <r>    -2.5095     0.0097     8.0178 </r>
       <r>    -2.3909     0.0001     8.0178 </r>
       <r>    -2.2722     0.0000     8.0178 </r>
       <r>    -2.1536     0.0000     8.0178 </r>
       <r>    -2.0349     0.0000     8.0178 </r>
       <r>    -1.9163     0.0021     8.0180 </r>
       <r>    -1.7976     0.1110     8.0312 </r>
       <r>    -1.6790     0.5189     8.0928 </r>
       <r>    -1.5603     0.2917     8.1274 </r>
       <r>    -1.4417     0.2507     8.1571 </r>
       <r>    -1.3230     0.1634     8.1765 </r>
       <r>    -1.2043     0.0489     8.1823 </r>
       <r>    -1.0857     0.3381     8.2224 </r>
       <r>    -0.9670     0.7160     8.3074 </r>
       <r>    -0.8484     0.5730     8.3754 </r>
       <r>    -0.7297     0.5736     8.4434 </r>
       <r>    -0.6111     0.5767     8.5119 </r>
       <r>    -0.4924     0.3208     8.5499 </r>
       <r>    -0.3738     0.4139     8.5990 </r>
       <r>    -0.2551     0.4408     8.6513 </r>
       <r>    -0.1365     0.0536     8.6577 </r>
       <r>    -0.0178     0.0007     8.6578 </r>
       <r>     0.1008     0.0274     8.6611 </r>
       <r>     0.2195     0.3559     8.7033 </r>
       <r>     0.3382     0.5458     8.7680 </r>
       <r>     0.4568     0.3468     8.8092 </r>
       <r>     0.5755     0.2962     8.8443 </r>
       <r>     0.6941     0.7936     8.9385 </r>
       <r>     0.8128     0.4001     8.9860 </r>
       <r>     0.9314     0.1974     9.0094 </r>
       <r>     1.0501     0.3752     9.0539 </r>
       <r>     1.1687     0.6015     9.1253 </r>
       <r>     1.2874     0.5734     9.1933 </r>
       <r>     1.4060     0.2678     9.2251 </r>
       <r>     1.5247     0.7191     9.3104 </r>
       <r>     1.6433     0.5165     9.3717 </r>
       <r>     1.7620     0.6009     9.4430 </r>
       <r>     1.8807     1.3904     9.6080 </r>
       <r>     1.9993     0.7504     9.6970 </r>
       <r>     2.1180     0.6467     9.7738 </r>
       <r>     2.2366     1.1421     9.9093 </r>
       <r>     2.3553     1.3734    10.0722 </r>
       <r>     2.4739     0.8258    10.1702 </r>
       <r>     2.5926     0.3355    10.2100 </r>
       <r>     2.7112     0.9126    10.3183 </r>
       <r>     2.8299     0.9526    10.4313 </r>
       <r>     2.9485     0.7278    10.5177 </r>
       <r>     3.0672     1.3555    10.6785 </r>
       <r>     3.1858     1.3428    10.8378 </r>
       <r>     3.3045     1.1170    10.9704 </r>
       <r>     3.4231     0.5701    11.0380 </r>
       <r>     3.5418     1.8253    11.2546 </r>
       <r>     3.6605     1.8670    11.4761 </r>
       <r>     3.7791     0.3877    11.5221 </r>
       <r>     3.8978     0.2742    11.5547 </r>
       <r>     4.0164     0.9223    11.6641 </r>
       <r>     4.1351     1.2505    11.8125 </r>
       <r>     4.2537     0.4142    11.8616 </r>
       <r>     4.3724     1.2512    12.0101 </r>
       <r>     4.4910     2.0730    12.2561 </r>
       <r>     4.6097     1.2268    12.4016 </r>
       <r>     4.7283     0.8583    12.5035 </r>
       <r>     4.8470     0.9959    12.6216 </r>
       <r>     4.9656     1.1723    12.7607 </r>
       <r>     5.0843     0.9832    12.8774 </r>
       <r>     5.2030     1.0273    12.9993 </r>
       <r>     5.3216     1.0880    13.1284 </r>
       <r>     5.4403     0.7645    13.2191 </r>
       <r>     5.5589     0.2125    13.2443 </r>
       <r>     5.6776     0.8374    13.3437 </r>
       <r>     5.7962     1.7459    13.5508 </r>
       <r>     5.9149     0.8929    13.6568 </r>
       <r>     6.0335     0.5172    13.7181 </r>
       <r>     6.1522     0.3360    13.7580 </r>
       <r>     6.2708     0.2112    13.7830 </r>
       <r>     6.3895     0.7290    13.8695 </r>
       <r>     6.5081     1.3591    14.0308 </r>
       <r>     6.6268     1.3304    14.1887 </r>
       <r>     6.7455     0.4783    14.2454 </r>
       <r>     6.8641     0.4943    14.3041 </r>
       <r>     6.9828     0.4136    14.3531 </r>
       <r>     7.1014     0.5126    14.4140 </r>
       <r>     7.2201     0.4329    14.4653 </r>
       <r>     7.3387     0.5469    14.5302 </r>
       <r>     7.4574     1.2747    14.6815 </r>
       <r>     7.5760     0.7404    14.7693 </r>
       <r>     7.6947     0.2654    14.8008 </r>
       <r>     7.8133     0.6160    14.8739 </r>
       <r>     7.9320     1.0784    15.0019 </r>
       <r>     8.0506     1.3272    15.1593 </r>
       <r>     8.1693     1.1609    15.2971 </r>
       <r>     8.2879     0.4112    15.3459 </r>
       <r>     8.4066     0.4221    15.3959 </r>
       <r>     8.5253     0.9196    15.5051 </r>
       <r>     8.6439     1.0840    15.6337 </r>
       <r>     8.7626     0.4830    15.6910 </r>
       <r>     8.8812     0.2089    15.7158 </r>
       <r>     8.9999     0.5454    15.7805 </r>
       <r>     9.1185     0.3553    15.8226 </r>
       <r>     9.2372     0.2536    15.8527 </r>
       <r>     9.3558     0.0419    15.8577 </r>
       <r>     9.4745     0.0006    15.8578 </r>
       <r>     9.5931     0.0038    15.8582 </r>
       <r>     9.7118     0.1492    15.8759 </r>
       <r>     9.8304     0.5353    15.9394 </r>
       <r>     9.9491     0.2067    15.9640 </r>
       <r>    10.0678     0.0852    15.9741 </r>
       <r>    10.1864     0.1757    15.9949 </r>
       <r>    10.3051     0.0419    15.9999 </r>
       <r>    10.4237     0.0009    16.0000 </r>
       <r>    10.5424     0.0000    16.0000 </r>
       <r>    10.6610     0.0000    16.0000 </r>
       <r>    10.7797     0.0000    16.0000 </r>
       <r>    10.8983     0.0000    16.0000 </r>
       <r>    11.0170     0.0000    16.0000 </r>
       <r>    11.1356     0.0000    16.0000 </r>
       <r>    11.2543     0.0000    16.0000 </r>
       <r>    11.3729     0.0000    16.0000 </r>
       <r>    11.4916     0.0000    16.0000 </r>
       <r>    11.6103     0.0000    16.0000 </r>
       <r>    11.7289     0.0000    16.0000 </r>
      </set>
     </set>
    </array>
   </total>
  </dos>
 </calculation>
 <structure name="finalpos" >
  <crystal>
   <varray name="basis" >
    <v>       2.46821527       0.00000000       0.00000000 </v>
    <v>      -1.23410763       2.13753713       0.00000000 </v>
    <v>       0.00000000       0.00000000      20.00000000 </v>
   </varray>
   <i name="volume">    105.51803544 </i>
   <varray name="rec_basis" >
    <v>       0.40515105       0.23391407       0.00000000 </v>
    <v>       0.00000000       0.46782813       0.00000000 </v>
    <v>       0.00000000       0.00000000       0.05000000 </v>
   </varray>
  </crystal>
  <varray name="positions" >
   <v>       0.66666667       0.33333333       0.50000000 </v>
   <v>       0.33333333       0.66666667       0.50000000 </v>
  </varray>
 </structure>
</modeling>
