unknown system                          
           1
     2.468816    0.000000    0.000000
    -1.234408    2.138058    0.000000
     0.000000    0.000000   20.000000
   C 
   2
Direct configuration=     1
   0.66666667  0.33333333  0.50000000
   0.33333333  0.66666667  0.50000000
unknown system                          
           1
     2.466847    0.000000    0.000000
    -1.233424    2.136352    0.000000
     0.000000    0.000000   20.000000
   C 
   2
Direct configuration=     2
   0.66666667  0.33333333  0.50000000
   0.33333333  0.66666667  0.50000000
unknown system                          
           1
     2.468193    0.000000    0.000000
    -1.234097    2.137518    0.000000
     0.000000    0.000000   20.000000
   C 
   2
Direct configuration=     3
   0.66666667  0.33333333  0.50000000
   0.33333333  0.66666667  0.50000000
unknown system                          
           1
     2.468215    0.000000    0.000000
    -1.234108    2.137537    0.000000
     0.000000    0.000000   20.000000
   C 
   2
Direct configuration=     4
   0.66666667  0.33333333  0.50000000
   0.33333333  0.66666667  0.50000000
