  64   64
1 1
     4.074186938807326    -0.000000000000000     0.643438535062600
    -0.000000000000000     3.401039796191125    -0.000000000000001
     0.644572759379696     0.000000000000000     6.034293554291724
1 2
    -0.152737759577478     0.000000000000000     0.035754977207635
    -0.000000000000000     0.252398907121908    -0.000000000000000
    -0.015872994586438     0.000000000000000     0.024804136528555
1 3
    -0.033165564404115    -0.000000000000000     0.010343552777762
    -0.000000000000000    -0.000100400318092    -0.000000000000000
     0.007987679652030     0.000000000000000    -0.007295831286256
1 4
    -0.153053296009330    -0.000000000000000    -0.016476372575571
    -0.000000000000000     0.252503053720525    -0.000000000000000
     0.036091194891257     0.000000000000000     0.026075217650620
1 5
     0.459223666668472     0.337114424312194    -0.077326230750061
    -0.337028882712302    -0.805418844294026     0.094459841062083
    -0.077389997763373    -0.094972408824206    -0.009560032358354
1 6
    -0.029480837369602    -0.234872228465679     0.069713746493097
    -0.033603761688517    -0.117961757312737     0.048659313865666
    -0.018869855822860    -0.042606730759785    -0.036505717422222
1 7
    -0.027413738063914     0.003222499729555     0.004334262136252
    -0.003702449043664     0.007525528320259     0.009962109174250
     0.003977390359848    -0.009852024845718    -0.001952319325833
1 8
    -0.029745350889070     0.034183337235366    -0.019070149180808
     0.235303505198451    -0.117791301548812     0.041903271565410
     0.070047910327908    -0.049010104199723    -0.035719120163817
1 9
     0.050049448924653     0.000000000000000    -0.022010344506972
    -0.000000000000000    -0.184388930456244    -0.000000000000000
    -0.023076450704072    -0.000000000000000     0.020957236940828
1 10
    -0.002400090944408    -0.000000000000000    -0.002185928983215
    -0.000000000000000    -0.088781603669103    -0.000000000000000
    -0.007255596779712    -0.000000000000000     0.011941645754942
1 11
    -0.004363130362996     0.000000000000000    -0.005795800034427
    -0.000000000000000    -0.010440134569344     0.000000000000000
    -0.007094717135307    -0.000000000000000    -0.022004273384575
1 12
    -0.002547788848680    -0.000000000000000    -0.006620222881905
    -0.000000000000000    -0.089155482465580    -0.000000000000000
    -0.001129252746931    -0.000000000000000     0.014036357110847
1 13
     0.459223666668472    -0.337114424312194    -0.077326230750061
     0.337028882712302    -0.805418844294026    -0.094459841062083
    -0.077389997763373     0.094972408824206    -0.009560032358354
1 14
    -0.029480837369602     0.234872228465679     0.069713746493097
     0.033603761688517    -0.117961757312737    -0.048659313865666
    -0.018869855822860     0.042606730759785    -0.036505717422222
1 15
    -0.027413738063914    -0.003222499729555     0.004334262136252
     0.003702449043664     0.007525528320259    -0.009962109174250
     0.003977390359848     0.009852024845718    -0.001952319325833
1 16
    -0.029745350889070    -0.034183337235366    -0.019070149180808
    -0.235303505198451    -0.117791301548812    -0.041903271565410
     0.070047910327908     0.049010104199723    -0.035719120163817
1 17
    -0.181161885577430     0.250175745410514     0.200285071732953
     0.068541573872277     0.023637906233741    -0.237711239692393
     0.224166442084681    -0.315872447719261     0.186301453998178
1 18
    -0.044760185566465     0.006182164324918    -0.005363447987378
     0.015243990087598     0.010688512968206    -0.010631944132266
     0.033067669925928     0.008363682772269     0.006661210359942
1 19
    -0.047705416048457    -0.036690844837426    -0.034525727831631
    -0.003593806908415     0.010764562462880    -0.014948408554111
     0.017221979282154    -0.005993136466128     0.012433213014855
1 20
    -0.069815456640811    -0.035073217108601    -0.288966250227979
    -0.310649073761716     0.032633475032331    -0.670625423206851
    -0.297696087417758    -0.355623593100974     0.074619405976834
1 21
    -0.181161885577430    -0.250175745410515     0.200285071732953
    -0.068541573872277     0.023637906233741     0.237711239692393
     0.224166442084681     0.315872447719261     0.186301453998178
1 22
    -0.044760185566465    -0.006182164324918    -0.005363447987378
    -0.015243990087598     0.010688512968206     0.010631944132266
     0.033067669925928    -0.008363682772269     0.006661210359942
1 23
    -0.047705416048457     0.036690844837426    -0.034525727831631
     0.003593806908415     0.010764562462880     0.014948408554111
     0.017221979282154     0.005993136466128     0.012433213014855
1 24
    -0.069815456640812     0.035073217108601    -0.288966250227979
     0.310649073761716     0.032633475032331     0.670625423206850
    -0.297696087417758     0.355623593100974     0.074619405976834
1 25
     0.022124474705727     0.024880047651552     0.023881072735389
    -0.033724766549501    -0.095973338394512    -0.005922494883263
     0.018233909205311     0.017473385295402     0.002257297338693
1 26
    -0.011246859733203    -0.043825996321950    -0.003336294251255
    -0.019635380119959    -0.027744953574193     0.005995921981569
     0.045709377956462     0.053478690932737     0.007110900327189
1 27
    -0.011028669647347     0.019178908546680    -0.040234923185827
     0.046524683222056    -0.023583959794170     0.049857749005875
     0.021753599666684    -0.007096787334629    -0.001960462380441
1 28
    -0.008292230293667     0.008778626346596    -0.037866721561659
     0.021653126811164    -0.070133368467696     0.063893938251950
    -0.042321481848923    -0.009907523222943     0.014740605463353
1 29
     0.022124474705727    -0.024880047651552     0.023881072735389
     0.033724766549501    -0.095973338394512     0.005922494883262
     0.018233909205311    -0.017473385295402     0.002257297338693
1 30
    -0.011246859733203     0.043825996321949    -0.003336294251255
     0.019635380119959    -0.027744953574193    -0.005995921981569
     0.045709377956462    -0.053478690932737     0.007110900327189
1 31
    -0.011028669647347    -0.019178908546680    -0.040234923185827
    -0.046524683222057    -0.023583959794170    -0.049857749005875
     0.021753599666684     0.007096787334629    -0.001960462380441
1 32
    -0.008292230293667    -0.008778626346596    -0.037866721561659
    -0.021653126811164    -0.070133368467696    -0.063893938251950
    -0.042321481848923     0.009907523222943     0.014740605463353
1 33
    -0.142386821904503     0.000000000000000     0.091579414189294
     0.000000000000000    -0.363875478216404     0.000000000000001
     0.067437234964133    -0.000000000000000    -4.324124599820113
1 34
     0.037097685428283    -0.000000000000000    -0.037386367695722
     0.000000000000000    -0.059664762166356     0.000000000000000
     0.013803580486631    -0.000000000000000    -0.003924886554183
1 35
     0.022127160122168    -0.000000000000000    -0.008544323762093
     0.000000000000000    -0.018762122129392     0.000000000000000
    -0.016613608224049    -0.000000000000000     0.005353773656857
1 36
     0.036008749061337    -0.000000000000000     0.012302564071687
     0.000000000000000    -0.116432150974046     0.000000000000000
     0.023068409636959    -0.000000000000000    -0.001289711683949
1 37
    -0.104324064942630    -0.038145669194498     0.106996054301719
     0.096777290195353     0.045708368695481    -0.139783841375615
     0.023631324298892    -0.026513719920081    -0.043294949522805
1 38
     0.073569333148688     0.041095599155262    -0.054585117294002
     0.034625747015960     0.030679789738118    -0.040581958423955
    -0.068777571495514    -0.042839134064833    -0.007595466559514
1 39
     0.029846725359728    -0.011166968594074    -0.002555173743893
     0.013131087871038    -0.004559598027971    -0.007719585651496
    -0.009943765759653    -0.017043072356083    -0.004319762585348
1 40
    -0.065918917384491     0.057200377230769    -0.042665896419310
    -0.021720934488681     0.041290380071386    -0.027988461808371
    -0.011528711476493     0.017424297263182    -0.065098125120507
1 41
    -0.035887233967368     0.000000000000000     0.009796399177848
     0.000000000000000     0.042499304797067     0.000000000000000
     0.011685741897695     0.000000000000000    -0.013715926059900
1 42
    -0.043711194769084    -0.000000000000000     0.005556126617041
     0.000000000000000     0.054910732179096     0.000000000000000
    -0.002434717680126     0.000000000000000    -0.015334507291030
1 43
     0.017527713112339     0.000000000000000     0.007412420732087
     0.000000000000000     0.066897331349497     0.000000000000000
    -0.055942099430750     0.000000000000000     0.000411507039801
1 44
     0.015498209636829     0.000000000000000     0.019022147361920
     0.000000000000000     0.068571169488431     0.000000000000000
     0.012225248095163     0.000000000000000    -0.013958460669120
1 45
    -0.104324064942630     0.038145669194498     0.106996054301719
    -0.096777290195352     0.045708368695481     0.139783841375615
     0.023631324298892     0.026513719920081    -0.043294949522805
1 46
     0.073569333148688    -0.041095599155262    -0.054585117294002
    -0.034625747015960     0.030679789738118     0.040581958423955
    -0.068777571495514     0.042839134064833    -0.007595466559514
1 47
     0.029846725359728     0.011166968594074    -0.002555173743893
    -0.013131087871038    -0.004559598027971     0.007719585651496
    -0.009943765759653     0.017043072356083    -0.004319762585348
1 48
    -0.065918917384491    -0.057200377230769    -0.042665896419310
     0.021720934488681     0.041290380071386     0.027988461808371
    -0.011528711476493    -0.017424297263182    -0.065098125120507
1 49
     0.177274745278654    -0.197382807914023    -0.102101547160402
    -0.224476754478843     0.006169374769914     0.156042324229604
     0.005695493179233    -0.024919724860410    -0.107954851734170
1 50
     0.023227509508989    -0.002328591731659     0.005551091461214
    -0.001638623101992    -0.000331545826535     0.002377764249735
    -0.006966414012870    -0.006932019358424    -0.007123007939334
1 51
     0.052584482045236     0.055553209921089     0.029657067823562
    -0.006281013929583    -0.113023784951659     0.008518292659600
    -0.023751212788177    -0.008523497123354    -0.009340470273275
1 52
    -2.021174320739661    -0.738287779446227    -0.135244621201821
    -0.865854216364543    -0.861457581539445     0.178419981694461
    -0.239280385608233    -0.360680699205144    -0.820002567858457
1 53
     0.177274745278654     0.197382807914023    -0.102101547160402
     0.224476754478843     0.006169374769914    -0.156042324229604
     0.005695493179234     0.024919724860410    -0.107954851734170
1 54
     0.023227509508989     0.002328591731659     0.005551091461214
     0.001638623101992    -0.000331545826535    -0.002377764249735
    -0.006966414012870     0.006932019358424    -0.007123007939334
1 55
     0.052584482045236    -0.055553209921089     0.029657067823562
     0.006281013929583    -0.113023784951659    -0.008518292659600
    -0.023751212788177     0.008523497123354    -0.009340470273275
1 56
    -2.021174320739661     0.738287779446227    -0.135244621201821
     0.865854216364543    -0.861457581539445    -0.178419981694461
    -0.239280385608233     0.360680699205144    -0.820002567858457
1 57
    -0.088927565453515     0.028538927552817    -0.016912417070226
     0.023949222145437     0.083567905061325    -0.006186233032280
     0.002093442830609     0.012506334671730    -0.001952769710513
1 58
     0.014864451356683     0.002230238354496    -0.004219460583386
     0.003728298379292     0.000555198773926    -0.004255025421222
    -0.012216450741562    -0.004079593305802    -0.005733061150701
1 59
     0.034157825779174    -0.032718106889584     0.025243250225237
    -0.057539122596008     0.125985540942930    -0.041034883739526
    -0.008644608207551     0.021120670651586    -0.000612732929417
1 60
     0.012999429638203    -0.066051845498335     0.031220315869451
    -0.041355939980588     0.215163126463612    -0.059217830899626
     0.008063546517813     0.046112678564404    -0.013511784106776
1 61
    -0.088927565453515    -0.028538927552817    -0.016912417070227
    -0.023949222145437     0.083567905061325     0.006186233032280
     0.002093442830609    -0.012506334671730    -0.001952769710513
1 62
     0.014864451356683    -0.002230238354496    -0.004219460583386
    -0.003728298379292     0.000555198773926     0.004255025421222
    -0.012216450741562     0.004079593305802    -0.005733061150701
1 63
     0.034157825779174     0.032718106889584     0.025243250225237
     0.057539122596008     0.125985540942930     0.041034883739526
    -0.008644608207551    -0.021120670651586    -0.000612732929417
1 64
     0.012999429638203     0.066051845498335     0.031220315869451
     0.041355939980588     0.215163126463612     0.059217830899626
     0.008063546517813    -0.046112678564404    -0.013511784106776
2 1
    -0.153053296009330    -0.000000000000000    -0.016476372575571
    -0.000000000000000     0.252503053720525    -0.000000000000000
     0.036091194891257     0.000000000000000     0.026075217650620
2 2
     4.074186938807326    -0.000000000000000     0.643438535062600
    -0.000000000000000     3.401039796191125    -0.000000000000001
     0.644572759379696     0.000000000000000     6.034293554291724
2 3
    -0.152737759577478     0.000000000000000     0.035754977207635
    -0.000000000000000     0.252398907121908    -0.000000000000000
    -0.015872994586438     0.000000000000000     0.024804136528555
2 4
    -0.033165564404115    -0.000000000000000     0.010343552777762
    -0.000000000000000    -0.000100400318092    -0.000000000000000
     0.007987679652030     0.000000000000000    -0.007295831286256
2 5
    -0.029745350889070     0.034183337235366    -0.019070149180808
     0.235303505198451    -0.117791301548812     0.041903271565410
     0.070047910327908    -0.049010104199723    -0.035719120163817
2 6
     0.459223666668472     0.337114424312194    -0.077326230750061
    -0.337028882712302    -0.805418844294026     0.094459841062083
    -0.077389997763373    -0.094972408824206    -0.009560032358354
2 7
    -0.029480837369602    -0.234872228465679     0.069713746493097
    -0.033603761688517    -0.117961757312737     0.048659313865666
    -0.018869855822860    -0.042606730759785    -0.036505717422222
2 8
    -0.027413738063914     0.003222499729555     0.004334262136252
    -0.003702449043664     0.007525528320259     0.009962109174250
     0.003977390359848    -0.009852024845718    -0.001952319325833
2 9
    -0.002547788848680    -0.000000000000000    -0.006620222881905
    -0.000000000000000    -0.089155482465580    -0.000000000000000
    -0.001129252746931    -0.000000000000000     0.014036357110847
2 10
     0.050049448924653     0.000000000000000    -0.022010344506972
    -0.000000000000000    -0.184388930456244    -0.000000000000000
    -0.023076450704072    -0.000000000000000     0.020957236940828
2 11
    -0.002400090944408    -0.000000000000000    -0.002185928983215
    -0.000000000000000    -0.088781603669103    -0.000000000000000
    -0.007255596779712    -0.000000000000000     0.011941645754942
2 12
    -0.004363130362996     0.000000000000000    -0.005795800034427
    -0.000000000000000    -0.010440134569344     0.000000000000000
    -0.007094717135307    -0.000000000000000    -0.022004273384575
2 13
    -0.029745350889070    -0.034183337235366    -0.019070149180808
    -0.235303505198451    -0.117791301548812    -0.041903271565410
     0.070047910327908     0.049010104199723    -0.035719120163817
2 14
     0.459223666668472    -0.337114424312194    -0.077326230750061
     0.337028882712302    -0.805418844294026    -0.094459841062083
    -0.077389997763373     0.094972408824206    -0.009560032358354
2 15
    -0.029480837369602     0.234872228465679     0.069713746493097
     0.033603761688517    -0.117961757312737    -0.048659313865666
    -0.018869855822860     0.042606730759785    -0.036505717422222
2 16
    -0.027413738063914    -0.003222499729555     0.004334262136252
     0.003702449043664     0.007525528320259    -0.009962109174250
     0.003977390359848     0.009852024845718    -0.001952319325833
2 17
    -0.069815456640811    -0.035073217108601    -0.288966250227979
    -0.310649073761716     0.032633475032331    -0.670625423206851
    -0.297696087417758    -0.355623593100974     0.074619405976834
2 18
    -0.181161885577430     0.250175745410514     0.200285071732953
     0.068541573872277     0.023637906233741    -0.237711239692393
     0.224166442084681    -0.315872447719261     0.186301453998178
2 19
    -0.044760185566465     0.006182164324918    -0.005363447987378
     0.015243990087598     0.010688512968206    -0.010631944132266
     0.033067669925928     0.008363682772269     0.006661210359942
2 20
    -0.047705416048457    -0.036690844837426    -0.034525727831631
    -0.003593806908415     0.010764562462880    -0.014948408554111
     0.017221979282154    -0.005993136466128     0.012433213014855
2 21
    -0.069815456640812     0.035073217108601    -0.288966250227979
     0.310649073761716     0.032633475032331     0.670625423206850
    -0.297696087417758     0.355623593100974     0.074619405976834
2 22
    -0.181161885577430    -0.250175745410515     0.200285071732953
    -0.068541573872277     0.023637906233741     0.237711239692393
     0.224166442084681     0.315872447719261     0.186301453998178
2 23
    -0.044760185566465    -0.006182164324918    -0.005363447987378
    -0.015243990087598     0.010688512968206     0.010631944132266
     0.033067669925928    -0.008363682772269     0.006661210359942
2 24
    -0.047705416048457     0.036690844837426    -0.034525727831631
     0.003593806908415     0.010764562462880     0.014948408554111
     0.017221979282154     0.005993136466128     0.012433213014855
2 25
    -0.008292230293667     0.008778626346596    -0.037866721561659
     0.021653126811164    -0.070133368467696     0.063893938251950
    -0.042321481848923    -0.009907523222943     0.014740605463353
2 26
     0.022124474705727     0.024880047651552     0.023881072735389
    -0.033724766549501    -0.095973338394512    -0.005922494883263
     0.018233909205311     0.017473385295402     0.002257297338693
2 27
    -0.011246859733203    -0.043825996321950    -0.003336294251255
    -0.019635380119959    -0.027744953574193     0.005995921981569
     0.045709377956462     0.053478690932737     0.007110900327189
2 28
    -0.011028669647347     0.019178908546680    -0.040234923185827
     0.046524683222056    -0.023583959794170     0.049857749005875
     0.021753599666684    -0.007096787334629    -0.001960462380441
2 29
    -0.008292230293667    -0.008778626346596    -0.037866721561659
    -0.021653126811164    -0.070133368467696    -0.063893938251950
    -0.042321481848923     0.009907523222943     0.014740605463353
2 30
     0.022124474705727    -0.024880047651552     0.023881072735389
     0.033724766549501    -0.095973338394512     0.005922494883262
     0.018233909205311    -0.017473385295402     0.002257297338693
2 31
    -0.011246859733203     0.043825996321949    -0.003336294251255
     0.019635380119959    -0.027744953574193    -0.005995921981569
     0.045709377956462    -0.053478690932737     0.007110900327189
2 32
    -0.011028669647347    -0.019178908546680    -0.040234923185827
    -0.046524683222057    -0.023583959794170    -0.049857749005875
     0.021753599666684     0.007096787334629    -0.001960462380441
2 33
     0.036008749061337    -0.000000000000000     0.012302564071687
     0.000000000000000    -0.116432150974046     0.000000000000000
     0.023068409636959    -0.000000000000000    -0.001289711683949
2 34
    -0.142386821904503     0.000000000000000     0.091579414189294
     0.000000000000000    -0.363875478216404     0.000000000000001
     0.067437234964133    -0.000000000000000    -4.324124599820113
2 35
     0.037097685428283    -0.000000000000000    -0.037386367695722
     0.000000000000000    -0.059664762166356     0.000000000000000
     0.013803580486631    -0.000000000000000    -0.003924886554183
2 36
     0.022127160122168    -0.000000000000000    -0.008544323762093
     0.000000000000000    -0.018762122129392     0.000000000000000
    -0.016613608224049    -0.000000000000000     0.005353773656857
2 37
    -0.065918917384491     0.057200377230769    -0.042665896419310
    -0.021720934488681     0.041290380071386    -0.027988461808371
    -0.011528711476493     0.017424297263182    -0.065098125120507
2 38
    -0.104324064942630    -0.038145669194498     0.106996054301719
     0.096777290195353     0.045708368695481    -0.139783841375615
     0.023631324298892    -0.026513719920081    -0.043294949522805
2 39
     0.073569333148688     0.041095599155262    -0.054585117294002
     0.034625747015960     0.030679789738118    -0.040581958423955
    -0.068777571495514    -0.042839134064833    -0.007595466559514
2 40
     0.029846725359728    -0.011166968594074    -0.002555173743893
     0.013131087871038    -0.004559598027971    -0.007719585651496
    -0.009943765759653    -0.017043072356083    -0.004319762585348
2 41
     0.015498209636829     0.000000000000000     0.019022147361920
     0.000000000000000     0.068571169488431     0.000000000000000
     0.012225248095163     0.000000000000000    -0.013958460669120
2 42
    -0.035887233967368     0.000000000000000     0.009796399177848
     0.000000000000000     0.042499304797067     0.000000000000000
     0.011685741897695     0.000000000000000    -0.013715926059900
2 43
    -0.043711194769084    -0.000000000000000     0.005556126617041
     0.000000000000000     0.054910732179096     0.000000000000000
    -0.002434717680126     0.000000000000000    -0.015334507291030
2 44
     0.017527713112339     0.000000000000000     0.007412420732087
     0.000000000000000     0.066897331349497     0.000000000000000
    -0.055942099430750     0.000000000000000     0.000411507039801
2 45
    -0.065918917384491    -0.057200377230769    -0.042665896419310
     0.021720934488681     0.041290380071386     0.027988461808371
    -0.011528711476493    -0.017424297263182    -0.065098125120507
2 46
    -0.104324064942630     0.038145669194498     0.106996054301719
    -0.096777290195352     0.045708368695481     0.139783841375615
     0.023631324298892     0.026513719920081    -0.043294949522805
2 47
     0.073569333148688    -0.041095599155262    -0.054585117294002
    -0.034625747015960     0.030679789738118     0.040581958423955
    -0.068777571495514     0.042839134064833    -0.007595466559514
2 48
     0.029846725359728     0.011166968594074    -0.002555173743893
    -0.013131087871038    -0.004559598027971     0.007719585651496
    -0.009943765759653     0.017043072356083    -0.004319762585348
2 49
    -2.021174320739661    -0.738287779446227    -0.135244621201821
    -0.865854216364543    -0.861457581539445     0.178419981694461
    -0.239280385608233    -0.360680699205144    -0.820002567858457
2 50
     0.177274745278654    -0.197382807914023    -0.102101547160402
    -0.224476754478843     0.006169374769914     0.156042324229604
     0.005695493179233    -0.024919724860410    -0.107954851734170
2 51
     0.023227509508989    -0.002328591731659     0.005551091461214
    -0.001638623101992    -0.000331545826535     0.002377764249735
    -0.006966414012870    -0.006932019358424    -0.007123007939334
2 52
     0.052584482045236     0.055553209921089     0.029657067823562
    -0.006281013929583    -0.113023784951659     0.008518292659600
    -0.023751212788177    -0.008523497123354    -0.009340470273275
2 53
    -2.021174320739661     0.738287779446227    -0.135244621201821
     0.865854216364543    -0.861457581539445    -0.178419981694461
    -0.239280385608233     0.360680699205144    -0.820002567858457
2 54
     0.177274745278654     0.197382807914023    -0.102101547160402
     0.224476754478843     0.006169374769914    -0.156042324229604
     0.005695493179234     0.024919724860410    -0.107954851734170
2 55
     0.023227509508989     0.002328591731659     0.005551091461214
     0.001638623101992    -0.000331545826535    -0.002377764249735
    -0.006966414012870     0.006932019358424    -0.007123007939334
2 56
     0.052584482045236    -0.055553209921089     0.029657067823562
     0.006281013929583    -0.113023784951659    -0.008518292659600
    -0.023751212788177     0.008523497123354    -0.009340470273275
2 57
     0.012999429638203    -0.066051845498335     0.031220315869451
    -0.041355939980588     0.215163126463612    -0.059217830899626
     0.008063546517813     0.046112678564404    -0.013511784106776
2 58
    -0.088927565453515     0.028538927552817    -0.016912417070226
     0.023949222145437     0.083567905061325    -0.006186233032280
     0.002093442830609     0.012506334671730    -0.001952769710513
2 59
     0.014864451356683     0.002230238354496    -0.004219460583386
     0.003728298379292     0.000555198773926    -0.004255025421222
    -0.012216450741562    -0.004079593305802    -0.005733061150701
2 60
     0.034157825779174    -0.032718106889584     0.025243250225237
    -0.057539122596008     0.125985540942930    -0.041034883739526
    -0.008644608207551     0.021120670651586    -0.000612732929417
2 61
     0.012999429638203     0.066051845498335     0.031220315869451
     0.041355939980588     0.215163126463612     0.059217830899626
     0.008063546517813    -0.046112678564404    -0.013511784106776
2 62
    -0.088927565453515    -0.028538927552817    -0.016912417070227
    -0.023949222145437     0.083567905061325     0.006186233032280
     0.002093442830609    -0.012506334671730    -0.001952769710513
2 63
     0.014864451356683    -0.002230238354496    -0.004219460583386
    -0.003728298379292     0.000555198773926     0.004255025421222
    -0.012216450741562     0.004079593305802    -0.005733061150701
2 64
     0.034157825779174     0.032718106889584     0.025243250225237
     0.057539122596008     0.125985540942930     0.041034883739526
    -0.008644608207551    -0.021120670651586    -0.000612732929417
3 1
    -0.033165564404115    -0.000000000000000     0.010343552777762
    -0.000000000000000    -0.000100400318092    -0.000000000000000
     0.007987679652030     0.000000000000000    -0.007295831286256
3 2
    -0.153053296009330    -0.000000000000000    -0.016476372575571
    -0.000000000000000     0.252503053720525    -0.000000000000000
     0.036091194891257     0.000000000000000     0.026075217650620
3 3
     4.074186938807326    -0.000000000000000     0.643438535062600
    -0.000000000000000     3.401039796191125    -0.000000000000001
     0.644572759379696     0.000000000000000     6.034293554291724
3 4
    -0.152737759577478     0.000000000000000     0.035754977207635
    -0.000000000000000     0.252398907121908    -0.000000000000000
    -0.015872994586438     0.000000000000000     0.024804136528555
3 5
    -0.027413738063914     0.003222499729555     0.004334262136252
    -0.003702449043664     0.007525528320259     0.009962109174250
     0.003977390359848    -0.009852024845718    -0.001952319325833
3 6
    -0.029745350889070     0.034183337235366    -0.019070149180808
     0.235303505198451    -0.117791301548812     0.041903271565410
     0.070047910327908    -0.049010104199723    -0.035719120163817
3 7
     0.459223666668472     0.337114424312194    -0.077326230750061
    -0.337028882712302    -0.805418844294026     0.094459841062083
    -0.077389997763373    -0.094972408824206    -0.009560032358354
3 8
    -0.029480837369602    -0.234872228465679     0.069713746493097
    -0.033603761688517    -0.117961757312737     0.048659313865666
    -0.018869855822860    -0.042606730759785    -0.036505717422222
3 9
    -0.004363130362996     0.000000000000000    -0.005795800034427
    -0.000000000000000    -0.010440134569344     0.000000000000000
    -0.007094717135307    -0.000000000000000    -0.022004273384575
3 10
    -0.002547788848680    -0.000000000000000    -0.006620222881905
    -0.000000000000000    -0.089155482465580    -0.000000000000000
    -0.001129252746931    -0.000000000000000     0.014036357110847
3 11
     0.050049448924653     0.000000000000000    -0.022010344506972
    -0.000000000000000    -0.184388930456244    -0.000000000000000
    -0.023076450704072    -0.000000000000000     0.020957236940828
3 12
    -0.002400090944408    -0.000000000000000    -0.002185928983215
    -0.000000000000000    -0.088781603669103    -0.000000000000000
    -0.007255596779712    -0.000000000000000     0.011941645754942
3 13
    -0.027413738063914    -0.003222499729555     0.004334262136252
     0.003702449043664     0.007525528320259    -0.009962109174250
     0.003977390359848     0.009852024845718    -0.001952319325833
3 14
    -0.029745350889070    -0.034183337235366    -0.019070149180808
    -0.235303505198451    -0.117791301548812    -0.041903271565410
     0.070047910327908     0.049010104199723    -0.035719120163817
3 15
     0.459223666668472    -0.337114424312194    -0.077326230750061
     0.337028882712302    -0.805418844294026    -0.094459841062083
    -0.077389997763373     0.094972408824206    -0.009560032358354
3 16
    -0.029480837369602     0.234872228465679     0.069713746493097
     0.033603761688517    -0.117961757312737    -0.048659313865666
    -0.018869855822860     0.042606730759785    -0.036505717422222
3 17
    -0.047705416048457    -0.036690844837426    -0.034525727831631
    -0.003593806908415     0.010764562462880    -0.014948408554111
     0.017221979282154    -0.005993136466128     0.012433213014855
3 18
    -0.069815456640811    -0.035073217108601    -0.288966250227979
    -0.310649073761716     0.032633475032331    -0.670625423206851