   8    8
1 1
    57.670483314859993     0.000000000000000    -0.000000000000000
     0.000000000000000    57.670483314859993     0.000000000000000
    -0.000000000000000     0.000000000000000    14.417091323779999
1 2
   -13.952759636209999     0.000000000000000    -0.000000000000000
     0.000000000000000    -0.323617057290000     0.000000000000000
    -0.000000000000000     0.000000000000000     0.787126591910000
1 3
    -3.730902702020000     5.901591878120000     0.000000000000000
     5.901591878120000   -10.545473991480000    -0.000000000000000
     0.000000000000000    -0.000000000000000     0.787126591910000
1 4
    -3.730902702020000    -5.901591878120000     0.000000000000000
    -5.901591878120000   -10.545473991480000    -0.000000000000000
     0.000000000000000    -0.000000000000000     0.787126591910000
1 5
   -17.594308545599997     7.568193316980000    -0.000000000000000
     7.568193316980000    -8.855311654910000    -0.000000000000000
    -0.000000000000000    -0.000000000000000    -5.175918006279999
1 6
   -17.594308545599997    -7.568193316980000     0.000000000000000
    -7.568193316980000    -8.855311654910000    -0.000000000000000
     0.000000000000000    -0.000000000000000    -5.175918006279999
1 7
    -4.485813149510000    -0.000000000000000    -0.000000000000000
    -0.000000000000000   -21.963806930889998     0.000000000000000
    -0.000000000000000     0.000000000000000    -5.175918006279999
1 8
     3.418511725880000     0.000000000000000    -0.000000000000000
     0.000000000000000     3.418511725880000     0.000000000000000
    -0.000000000000000     0.000000000000000    -1.250716840450000
2 1
   -13.952759636209999     0.000000000000000    -0.000000000000000
     0.000000000000000    -0.323617057290000     0.000000000000000
    -0.000000000000000     0.000000000000000     0.787126591910000
2 2
    57.670483314859993     0.000000000000000    -0.000000000000000
     0.000000000000000    57.670483314859993     0.000000000000000
    -0.000000000000000     0.000000000000000    14.417091323779999
2 3
    -3.730902702020000    -5.901591878120000     0.000000000000000
    -5.901591878120000   -10.545473991480000    -0.000000000000000
     0.000000000000000    -0.000000000000000     0.787126591910000
2 4
    -3.730902702020000     5.901591878120000     0.000000000000000
     5.901591878120000   -10.545473991480000    -0.000000000000000
     0.000000000000000    -0.000000000000000     0.787126591910000
2 5
   -17.594308545599997    -7.568193316980000     0.000000000000000
    -7.568193316980000    -8.855311654910000    -0.000000000000000
     0.000000000000000    -0.000000000000000    -5.175918006279999
2 6
   -17.594308545599997     7.568193316980000    -0.000000000000000
     7.568193316980000    -8.855311654910000    -0.000000000000000
    -0.000000000000000    -0.000000000000000    -5.175918006279999
2 7
     3.418511725880000     0.000000000000000    -0.000000000000000
     0.000000000000000     3.418511725880000     0.000000000000000
    -0.000000000000000     0.000000000000000    -1.250716840450000
2 8
    -4.485813149510000    -0.000000000000000    -0.000000000000000
    -0.000000000000000   -21.963806930889998     0.000000000000000
    -0.000000000000000     0.000000000000000    -5.175918006279999
3 1
    -3.730902702020000     5.901591878120000     0.000000000000000
     5.901591878120000   -10.545473991480000    -0.000000000000000
     0.000000000000000    -0.000000000000000     0.787126591910000
3 2
    -3.730902702020000    -5.901591878120000     0.000000000000000
    -5.901591878120000   -10.545473991480000    -0.000000000000000
     0.000000000000000    -0.000000000000000     0.787126591910000
3 3
    57.670483314859993     0.000000000000000    -0.000000000000000
     0.000000000000000    57.670483314859993     0.000000000000000
    -0.000000000000000     0.000000000000000    14.417091323779999
3 4
   -13.952759636209999     0.000000000000000    -0.000000000000000
     0.000000000000000    -0.323617057290000     0.000000000000000
    -0.000000000000000     0.000000000000000     0.787126591910000
3 5
    -4.485813149510000    -0.000000000000000    -0.000000000000000
    -0.000000000000000   -21.963806930889998     0.000000000000000
    -0.000000000000000     0.000000000000000    -5.175918006279999
3 6
     3.418511725880000     0.000000000000000    -0.000000000000000
     0.000000000000000     3.418511725880000     0.000000000000000
    -0.000000000000000     0.000000000000000    -1.250716840450000
3 7
   -17.594308545599997     7.568193316980000    -0.000000000000000
     7.568193316980000    -8.855311654910000    -0.000000000000000
    -0.000000000000000    -0.000000000000000    -5.175918006279999
3 8
   -17.594308545599997    -7.568193316980000     0.000000000000000
    -7.568193316980000    -8.855311654910000    -0.000000000000000
     0.000000000000000    -0.000000000000000    -5.175918006279999
4 1
    -3.730902702020000    -5.901591878120000     0.000000000000000
    -5.901591878120000   -10.545473991480000    -0.000000000000000
     0.000000000000000    -0.000000000000000     0.787126591910000
4 2
    -3.730902702020000     5.901591878120000     0.000000000000000
     5.901591878120000   -10.545473991480000    -0.000000000000000
     0.000000000000000    -0.000000000000000     0.787126591910000
4 3
   -13.952759636209999     0.000000000000000    -0.000000000000000
     0.000000000000000    -0.323617057290000     0.000000000000000
    -0.000000000000000     0.000000000000000     0.787126591910000
4 4
    57.670483314859993     0.000000000000000    -0.000000000000000
     0.000000000000000    57.670483314859993     0.000000000000000
    -0.000000000000000     0.000000000000000    14.417091323779999
4 5
     3.418511725880000     0.000000000000000    -0.000000000000000
     0.000000000000000     3.418511725880000     0.000000000000000
    -0.000000000000000     0.000000000000000    -1.250716840450000
4 6
    -4.485813149510000    -0.000000000000000    -0.000000000000000
    -0.000000000000000   -21.963806930889998     0.000000000000000
    -0.000000000000000     0.000000000000000    -5.175918006279999
4 7
   -17.594308545599997    -7.568193316980000     0.000000000000000
    -7.568193316980000    -8.855311654910000    -0.000000000000000
     0.000000000000000    -0.000000000000000    -5.175918006279999
4 8
   -17.594308545599997     7.568193316980000    -0.000000000000000
     7.568193316980000    -8.855311654910000    -0.000000000000000
    -0.000000000000000    -0.000000000000000    -5.175918006279999
5 1
   -17.594308545599997     7.568193316980000    -0.000000000000000
     7.568193316980000    -8.855311654910000    -0.000000000000000
    -0.000000000000000    -0.000000000000000    -5.175918006279999
5 2
   -17.594308545599997    -7.568193316980000     0.000000000000000
    -7.568193316980000    -8.855311654910000    -0.000000000000000
     0.000000000000000    -0.000000000000000    -5.175918006279999
5 3
    -4.485813149510000    -0.000000000000000    -0.000000000000000
    -0.000000000000000   -21.963806930889998     0.000000000000000
    -0.000000000000000     0.000000000000000    -5.175918006279999
5 4
     3.418511725880000     0.000000000000000    -0.000000000000000
     0.000000000000000     3.418511725880000     0.000000000000000
    -0.000000000000000     0.000000000000000    -1.250716840450000
5 5
    57.670483314859993     0.000000000000000    -0.000000000000000
     0.000000000000000    57.670483314859993     0.000000000000000
    -0.000000000000000     0.000000000000000    14.417091323779999
5 6
   -13.952759636209999     0.000000000000000    -0.000000000000000
     0.000000000000000    -0.323617057290000     0.000000000000000
    -0.000000000000000     0.000000000000000     0.787126591910000
5 7
    -3.730902702020000     5.901591878120000     0.000000000000000
     5.901591878120000   -10.545473991480000    -0.000000000000000
     0.000000000000000    -0.000000000000000     0.787126591910000
5 8
    -3.730902702020000    -5.901591878120000     0.000000000000000
    -5.901591878120000   -10.545473991480000    -0.000000000000000
     0.000000000000000    -0.000000000000000     0.787126591910000
6 1
   -17.594308545599997    -7.568193316980000     0.000000000000000
    -7.568193316980000    -8.855311654910000    -0.000000000000000
     0.000000000000000    -0.000000000000000    -5.175918006279999
6 2
   -17.594308545599997     7.568193316980000    -0.000000000000000
     7.568193316980000    -8.855311654910000    -0.000000000000000
    -0.000000000000000    -0.000000000000000    -5.175918006279999
6 3
     3.418511725880000     0.000000000000000    -0.000000000000000
     0.000000000000000     3.418511725880000     0.000000000000000
    -0.000000000000000     0.000000000000000    -1.250716840450000
6 4
    -4.485813149510000    -0.000000000000000    -0.000000000000000
    -0.000000000000000   -21.963806930889998     0.000000000000000
    -0.000000000000000     0.000000000000000    -5.175918006279999
6 5
   -13.952759636209999     0.000000000000000    -0.000000000000000
     0.000000000000000    -0.323617057290000     0.000000000000000
    -0.000000000000000     0.000000000000000     0.787126591910000
6 6
    57.670483314859993     0.000000000000000    -0.000000000000000
     0.000000000000000    57.670483314859993     0.000000000000000
    -0.000000000000000     0.000000000000000    14.417091323779999
6 7
    -3.730902702020000    -5.901591878120000     0.000000000000000
    -5.901591878120000   -10.545473991480000    -0.000000000000000
     0.000000000000000    -0.000000000000000     0.787126591910000
6 8
    -3.730902702020000     5.901591878120000     0.000000000000000
     5.901591878120000   -10.545473991480000    -0.000000000000000
     0.000000000000000    -0.000000000000000     0.787126591910000
7 1
    -4.485813149510000    -0.000000000000000    -0.000000000000000
    -0.000000000000000   -21.963806930889998     0.000000000000000
    -0.000000000000000     0.000000000000000    -5.175918006279999
7 2
     3.418511725880000     0.000000000000000    -0.000000000000000
     0.000000000000000     3.418511725880000     0.000000000000000
    -0.000000000000000     0.000000000000000    -1.250716840450000
7 3
   -17.594308545599997     7.568193316980000    -0.000000000000000
     7.568193316980000    -8.855311654910000    -0.000000000000000
    -0.000000000000000    -0.000000000000000    -5.175918006279999
7 4
   -17.594308545599997    -7.568193316980000     0.000000000000000
    -7.568193316980000    -8.855311654910000    -0.000000000000000
     0.000000000000000    -0.000000000000000    -5.175918006279999
7 5
    -3.730902702020000     5.901591878120000     0.000000000000000
     5.901591878120000   -10.545473991480000    -0.000000000000000
     0.000000000000000    -0.000000000000000     0.787126591910000
7 6
    -3.730902702020000    -5.901591878120000     0.000000000000000
    -5.901591878120000   -10.545473991480000    -0.000000000000000
     0.000000000000000    -0.000000000000000     0.787126591910000
7 7
    57.670483314859993     0.000000000000000    -0.000000000000000
     0.000000000000000    57.670483314859993     0.000000000000000
    -0.000000000000000     0.000000000000000    14.417091323779999
7 8
   -13.952759636209999     0.000000000000000    -0.000000000000000
     0.000000000000000    -0.323617057290000     0.000000000000000
    -0.000000000000000     0.000000000000000     0.787126591910000
8 1
     3.418511725880000     0.000000000000000    -0.000000000000000
     0.000000000000000     3.418511725880000     0.000000000000000
    -0.000000000000000     0.000000000000000    -1.250716840450000
8 2
    -4.485813149510000    -0.000000000000000    -0.000000000000000
    -0.000000000000000   -21.963806930889998     0.000000000000000
    -0.000000000000000     0.000000000000000    -5.175918006279999
8 3
   -17.594308545599997    -7.568193316980000     0.000000000000000
    -7.568193316980000    -8.855311654910000    -0.000000000000000
     0.000000000000000    -0.000000000000000    -5.175918006279999
8 4
   -17.594308545599997     7.568193316980000    -0.000000000000000
     7.568193316980000    -8.855311654910000    -0.000000000000000
    -0.000000000000000    -0.000000000000000    -5.175918006279999
8 5
    -3.730902702020000    -5.901591878120000     0.000000000000000
    -5.901591878120000   -10.545473991480000    -0.000000000000000
     0.000000000000000    -0.000000000000000     0.787126591910000
8 6
    -3.730902702020000     5.901591878120000     0.000000000000000
     5.901591878120000   -10.545473991480000    -0.000000000000000
     0.000000000000000    -0.000000000000000     0.787126591910000
8 7
   -13.952759636209999     0.000000000000000    -0.000000000000000
     0.000000000000000    -0.323617057290000     0.000000000000000
    -0.000000000000000     0.000000000000000     0.787126591910000
8 8
    57.670483314859993     0.000000000000000    -0.000000000000000
     0.000000000000000    57.670483314859993     0.000000000000000
    -0.000000000000000     0.000000000000000    14.417091323779999